/*--------------------------------*- C++ -*----------------------------------*\
| =========                 |                                                 |
| \\      /  F ield         | OpenFOAM: The Open Source CFD Toolbox           |
|  \\    /   O peration     | Version:  2112                                  |
|   \\  /    A nd           | Website:  www.openfoam.com                      |
|    \\/     M anipulation  |                                                 |
\*---------------------------------------------------------------------------*/
FoamFile
{
    version     2.0;
    format      ascii;
    arch        "LSB;label=64;scalar=64";
    class       volVectorField;
    location    "0.1";
    object      grad(T);
}
// * * * * * * * * * * * * * * * * * * * * * * * * * * * * * * * * * * * * * //

dimensions      [0 -1 0 1 0 0 0];

internalField   nonuniform List<vector> 
2500
(
(-4.39448e-08 -4.39448e-08 0)
(-3.95112e-08 -1.23003e-07 0)
(-3.50817e-08 -1.93272e-07 0)
(-3.0663e-08 -2.54802e-07 0)
(-2.62648e-08 -3.07658e-07 0)
(-2.18985e-08 -3.51926e-07 0)
(-1.75782e-08 -3.87718e-07 0)
(-1.33195e-08 -4.15169e-07 0)
(-9.13875e-09 -4.3445e-07 0)
(-5.0545e-09 -4.45763e-07 0)
(-1.0855e-09 -4.49342e-07 0)
(2.74975e-09 -4.45456e-07 0)
(6.4315e-09 -4.34412e-07 0)
(9.94075e-09 -4.16552e-07 0)
(1.32595e-08 -3.92252e-07 0)
(1.637e-08 -3.6192e-07 0)
(1.92553e-08 -3.25991e-07 0)
(2.18998e-08 -2.84936e-07 0)
(2.42903e-08 -2.39249e-07 0)
(2.64145e-08 -1.89443e-07 0)
(2.8262e-08 -1.36055e-07 0)
(2.98251e-08 -7.9633e-08 0)
(3.10976e-08 -2.07372e-08 0)
(3.20758e-08 4.00656e-08 0)
(3.27592e-08 1.02208e-07 0)
(3.31485e-08 1.65124e-07 0)
(3.32482e-08 2.28257e-07 0)
(3.3065e-08 2.91065e-07 0)
(3.2608e-08 3.5302e-07 0)
(3.18893e-08 4.13618e-07 0)
(3.09227e-08 4.72389e-07 0)
(2.97255e-08 5.28884e-07 0)
(2.83175e-08 5.82702e-07 0)
(2.672e-08 6.33479e-07 0)
(2.49565e-08 6.80894e-07 0)
(2.3054e-08 7.24685e-07 0)
(2.10402e-08 7.64631e-07 0)
(1.89445e-08 8.0058e-07 0)
(1.67987e-08 8.32435e-07 0)
(1.4636e-08 8.60159e-07 0)
(1.24905e-08 8.83786e-07 0)
(1.03975e-08 9.03414e-07 0)
(8.39375e-09 9.19214e-07 0)
(6.5165e-09 9.31428e-07 0)
(4.80325e-09 9.40363e-07 0)
(3.29325e-09 9.46411e-07 0)
(2.0245e-09 9.50031e-07 0)
(1.0365e-09 9.51754e-07 0)
(3.685e-10 9.52195e-07 0)
(5.95e-11 9.52035e-07 0)
(-1.23003e-07 -3.95112e-08 0)
(-1.09817e-07 -1.09817e-07 0)
(-9.67165e-08 -1.71517e-07 0)
(-8.37222e-08 -2.24734e-07 0)
(-7.08593e-08 -2.696e-07 0)
(-5.8162e-08 -3.06272e-07 0)
(-4.5665e-08 -3.34917e-07 0)
(-3.34125e-08 -3.55734e-07 0)
(-2.1455e-08 -3.6895e-07 0)
(-9.8375e-09 -3.74812e-07 0)
(1.3925e-09 -3.73605e-07 0)
(1.218e-08 -3.65637e-07 0)
(2.24725e-08 -3.51247e-07 0)
(3.222e-08 -3.30806e-07 0)
(4.13725e-08 -3.04711e-07 0)
(4.9891e-08 -2.7338e-07 0)
(5.77283e-08 -2.37263e-07 0)
(6.4842e-08 -1.96828e-07 0)
(7.12025e-08 -1.5256e-07 0)
(7.67793e-08 -1.04961e-07 0)
(8.15485e-08 -5.45458e-08 0)
(8.54929e-08 -1.83625e-09 0)
(8.8601e-08 5.26404e-08 0)
(9.08691e-08 1.08358e-07 0)
(9.22993e-08 1.64793e-07 0)
(9.2901e-08 2.21433e-07 0)
(9.26922e-08 2.77773e-07 0)
(9.16972e-08 3.33335e-07 0)
(8.99458e-08 3.87651e-07 0)
(8.748e-08 4.40292e-07 0)
(8.43425e-08 4.90846e-07 0)
(8.05875e-08 5.38949e-07 0)
(7.62775e-08 5.84266e-07 0)
(7.14725e-08 6.26506e-07 0)
(6.625e-08 6.65431e-07 0)
(6.06825e-08 7.00845e-07 0)
(5.4855e-08 7.32604e-07 0)
(4.886e-08 7.60625e-07 0)
(4.278e-08 7.84877e-07 0)
(3.6715e-08 8.05393e-07 0)
(3.0765e-08 8.22269e-07 0)
(2.503e-08 8.35656e-07 0)
(1.962e-08 8.45781e-07 0)
(1.46325e-08 8.52927e-07 0)
(1.018e-08 8.5745e-07 0)
(6.375e-09 8.59773e-07 0)
(3.3175e-09 8.60382e-07 0)
(1.1275e-09 8.59834e-07 0)
(-8.75e-11 8.58755e-07 0)
(-2.2e-10 8.57835e-07 0)
(-1.93272e-07 -3.50818e-08 0)
(-1.71517e-07 -9.67165e-08 0)
(-1.49999e-07 -1.49999e-07 0)
(-1.28746e-07 -1.95114e-07 0)
(-1.07802e-07 -2.32255e-07 0)
(-8.7215e-08 -2.61633e-07 0)
(-6.704e-08 -2.83475e-07 0)
(-4.73525e-08 -2.98037e-07 0)
(-2.82175e-08 -3.05585e-07 0)
(-9.71e-09 -3.06418e-07 0)
(8.09e-09 -3.0085e-07 0)
(2.51075e-08 -2.89233e-07 0)
(4.12625e-08 -2.71928e-07 0)
(5.64775e-08 -2.4933e-07 0)
(7.0685e-08 -2.21845e-07 0)
(8.38175e-08 -1.89907e-07 0)
(9.58075e-08 -1.53969e-07 0)
(1.06603e-07 -1.14488e-07 0)
(1.16157e-07 -7.19425e-08 0)
(1.24429e-07 -2.68175e-08 0)
(1.31387e-07 2.03968e-08 0)
(1.37011e-07 6.92074e-08 0)
(1.41291e-07 1.19124e-07 0)
(1.44228e-07 1.6966e-07 0)
(1.45835e-07 2.20341e-07 0)
(1.46129e-07 2.70701e-07 0)
(1.4515e-07 3.20297e-07 0)
(1.42943e-07 3.68706e-07 0)
(1.39565e-07 4.15528e-07 0)
(1.35085e-07 4.6039e-07 0)
(1.2958e-07 5.02958e-07 0)
(1.23145e-07 5.42935e-07 0)
(1.15875e-07 5.8005e-07 0)
(1.07885e-07 6.14092e-07 0)
(9.9295e-08 6.44887e-07 0)
(9.02275e-08 6.7231e-07 0)
(8.082e-08 6.9629e-07 0)
(7.12175e-08 7.168e-07 0)
(6.15675e-08 7.3388e-07 0)
(5.20275e-08 7.47618e-07 0)
(4.27525e-08 7.58165e-07 0)
(3.391e-08 7.65728e-07 0)
(2.5665e-08 7.7057e-07 0)
(1.8185e-08 7.73022e-07 0)
(1.165e-08 7.73475e-07 0)
(6.225e-09 7.72372e-07 0)
(2.085e-09 7.70228e-07 0)
(-5.9e-10 7.67613e-07 0)
(-1.63e-09 7.65155e-07 0)
(-8.6e-10 7.63553e-07 0)
(-2.54802e-07 -3.0663e-08 0)
(-2.24734e-07 -8.37222e-08 0)
(-1.95114e-07 -1.28746e-07 0)
(-1.65978e-07 -1.65978e-07 0)
(-1.37377e-07 -1.9566e-07 0)
(-1.09382e-07 -2.18057e-07 0)
(-8.207e-08 -2.33453e-07 0)
(-5.55225e-08 -2.42137e-07 0)
(-2.9835e-08 -2.4442e-07 0)
(-5.1025e-09 -2.4064e-07 0)
(1.85775e-08 -2.31145e-07 0)
(4.11025e-08 -2.1631e-07 0)
(6.2375e-08 -1.96517e-07 0)
(8.23025e-08 -1.7218e-07 0)
(1.00795e-07 -1.43713e-07 0)
(1.17767e-07 -1.11552e-07 0)
(1.33147e-07 -7.615e-08 0)
(1.46868e-07 -3.79525e-08 0)
(1.58873e-07 2.57275e-09 0)
(1.69119e-07 4.4964e-08 0)
(1.77573e-07 8.87574e-08 0)
(1.8422e-07 1.33492e-07 0)
(1.89054e-07 1.78716e-07 0)
(1.92086e-07 2.23985e-07 0)
(1.93339e-07 2.68871e-07 0)
(1.92857e-07 3.12963e-07 0)
(1.90698e-07 3.55872e-07 0)
(1.86928e-07 3.9723e-07 0)
(1.8163e-07 4.36705e-07 0)
(1.7491e-07 4.73985e-07 0)
(1.66888e-07 5.08802e-07 0)
(1.5768e-07 5.40923e-07 0)
(1.47435e-07 5.7015e-07 0)
(1.3631e-07 5.96337e-07 0)
(1.24467e-07 6.19372e-07 0)
(1.12085e-07 6.39197e-07 0)
(9.9345e-08 6.55805e-07 0)
(8.645e-08 6.69232e-07 0)
(7.35975e-08 6.7957e-07 0)
(6.1e-08 6.86965e-07 0)
(4.8875e-08 6.9161e-07 0)
(3.7435e-08 6.93762e-07 0)
(2.6915e-08 6.93723e-07 0)
(1.75375e-08 6.91855e-07 0)
(9.53e-09 6.88577e-07 0)
(3.1275e-09 6.84353e-07 0)
(-1.4425e-09 6.79713e-07 0)
(-3.945e-09 6.75232e-07 0)
(-4.1475e-09 6.7154e-07 0)
(-1.8225e-09 6.69327e-07 0)
(-3.07658e-07 -2.62648e-08 0)
(-2.696e-07 -7.08593e-08 0)
(-2.32255e-07 -1.07803e-07 0)
(-1.9566e-07 -1.37377e-07 0)
(-1.59882e-07 -1.59882e-07 0)
(-1.25008e-07 -1.75628e-07 0)
(-9.112e-08 -1.8493e-07 0)
(-5.832e-08 -1.88117e-07 0)
(-2.672e-08 -1.85547e-07 0)
(3.565e-09 -1.77573e-07 0)
(3.242e-08 -1.6458e-07 0)
(5.9735e-08 -1.46953e-07 0)
(8.53925e-08 -1.251e-07 0)
(1.09283e-07 -9.9435e-08 0)
(1.31312e-07 -7.03825e-08 0)
(1.5138e-07 -3.83775e-08 0)
(1.69407e-07 -3.86e-09 0)
(1.85326e-07 3.273e-08 0)
(1.99074e-07 7.09495e-08 0)
(2.10613e-07 1.10358e-07 0)
(2.19915e-07 1.50523e-07 0)
(2.2697e-07 1.91017e-07 0)
(2.31784e-07 2.31429e-07 0)
(2.34384e-07 2.71357e-07 0)
(2.34813e-07 3.10422e-07 0)
(2.3313e-07 3.4827e-07 0)
(2.29418e-07 3.8456e-07 0)
(2.23775e-07 4.18988e-07 0)
(2.1632e-07 4.51273e-07 0)
(2.07183e-07 4.8118e-07 0)
(1.96517e-07 5.08492e-07 0)
(1.84492e-07 5.33042e-07 0)
(1.7129e-07 5.54705e-07 0)
(1.57108e-07 5.73385e-07 0)
(1.42155e-07 5.8904e-07 0)
(1.2666e-07 6.01673e-07 0)
(1.10855e-07 6.11328e-07 0)
(9.49825e-08 6.18102e-07 0)
(7.93e-08 6.22135e-07 0)
(6.40675e-08 6.23622e-07 0)
(4.955e-08 6.22798e-07 0)
(3.60225e-08 6.19958e-07 0)
(2.37575e-08 6.1544e-07 0)
(1.304e-08 6.09628e-07 0)
(4.1475e-09 6.0296e-07 0)
(-2.64e-09 5.95918e-07 0)
(-7.035e-09 5.89038e-07 0)
(-8.7625e-09 5.82892e-07 0)
(-7.535e-09 5.7811e-07 0)
(-3.0725e-09 5.7536e-07 0)
(-3.51926e-07 -2.18985e-08 0)
(-3.06272e-07 -5.8162e-08 0)
(-2.61633e-07 -8.7215e-08 0)
(-2.18057e-07 -1.09382e-07 0)
(-1.75628e-07 -1.25007e-07 0)
(-1.3443e-07 -1.3443e-07 0)
(-9.456e-08 -1.38e-07 0)
(-5.614e-08 -1.36087e-07 0)
(-1.929e-08 -1.29068e-07 0)
(1.5865e-08 -1.17325e-07 0)
(4.91975e-08 -1.01257e-07 0)
(8.05825e-08 -8.1265e-08 0)
(1.09892e-07 -5.777e-08 0)
(1.3702e-07 -3.1185e-08 0)
(1.61853e-07 -1.9375e-09 0)
(1.8429e-07 2.95425e-08 0)
(2.04255e-07 6.2835e-08 0)
(2.21677e-07 9.75103e-08 0)
(2.36501e-07 1.33151e-07 0)
(2.48691e-07 1.69343e-07 0)
(2.58232e-07 2.05686e-07 0)
(2.65126e-07 2.41791e-07 0)
(2.69394e-07 2.77286e-07 0)
(2.7108e-07 3.1182e-07 0)
(2.70253e-07 3.45058e-07 0)
(2.66995e-07 3.76695e-07 0)
(2.61415e-07 4.06452e-07 0)
(2.5364e-07 4.3408e-07 0)
(2.43822e-07 4.5936e-07 0)
(2.3213e-07 4.8211e-07 0)
(2.1875e-07 5.02182e-07 0)
(2.03893e-07 5.19465e-07 0)
(1.87777e-07 5.3389e-07 0)
(1.70645e-07 5.4543e-07 0)
(1.52755e-07 5.54098e-07 0)
(1.34372e-07 5.59945e-07 0)
(1.15775e-07 5.63077e-07 0)
(9.72575e-08 5.63635e-07 0)
(7.91175e-08 5.6181e-07 0)
(6.16625e-08 5.57832e-07 0)
(4.521e-08 5.5198e-07 0)
(3.00775e-08 5.4457e-07 0)
(1.6585e-08 5.35972e-07 0)
(5.0575e-09 5.26595e-07 0)
(-4.18e-09 5.1688e-07 0)
(-1.0795e-08 5.07325e-07 0)
(-1.44675e-08 4.9846e-07 0)
(-1.48725e-08 4.90852e-07 0)
(-1.168e-08 4.85123e-07 0)
(-4.5725e-09 4.81912e-07 0)
(-3.87718e-07 -1.75782e-08 0)
(-3.34917e-07 -4.5665e-08 0)
(-2.83475e-07 -6.704e-08 0)
(-2.33453e-07 -8.207e-08 0)
(-1.8493e-07 -9.112e-08 0)
(-1.38e-07 -9.456e-08 0)
(-9.27775e-08 -9.27775e-08 0)
(-4.93875e-08 -8.61625e-08 0)
(-7.9575e-09 -7.5105e-08 0)
(3.1375e-08 -6.00175e-08 0)
(6.848e-08 -4.12975e-08 0)
(1.03223e-07 -1.93675e-08 0)
(1.35472e-07 5.36e-09 0)
(1.65115e-07 3.2465e-08 0)
(1.9204e-07 6.1525e-08 0)
(2.16152e-07 9.21325e-08 0)
(2.37375e-07 1.23872e-07 0)
(2.55642e-07 1.56342e-07 0)
(2.70906e-07 1.89147e-07 0)
(2.83148e-07 2.21906e-07 0)
(2.92363e-07 2.54253e-07 0)
(2.9857e-07 2.85839e-07 0)
(3.01812e-07 3.16335e-07 0)
(3.02155e-07 3.45435e-07 0)
(2.99688e-07 3.72855e-07 0)
(2.94525e-07 3.98345e-07 0)
(2.86803e-07 4.21675e-07 0)
(2.76683e-07 4.42658e-07 0)
(2.6435e-07 4.61127e-07 0)
(2.50005e-07 4.7696e-07 0)
(2.33872e-07 4.90067e-07 0)
(2.162e-07 5.00398e-07 0)
(1.97255e-07 5.07938e-07 0)
(1.77315e-07 5.12715e-07 0)
(1.5667e-07 5.14795e-07 0)
(1.3564e-07 5.14282e-07 0)
(1.14545e-07 5.1133e-07 0)
(9.3715e-08 5.0612e-07 0)
(7.34975e-08 4.98885e-07 0)
(5.42375e-08 4.89892e-07 0)
(3.62875e-08 4.79448e-07 0)
(2.0015e-08 4.6791e-07 0)
(5.7825e-09 4.5562e-07 0)
(-6.0525e-09 4.4305e-07 0)
(-1.51225e-08 4.30637e-07 0)
(-2.106e-08 4.18875e-07 0)
(-2.35075e-08 4.0828e-07 0)
(-2.21e-08 3.99417e-07 0)
(-1.6475e-08 3.92877e-07 0)
(-6.2825e-09 3.8928e-07 0)
(-4.15169e-07 -1.33195e-08 0)
(-3.55734e-07 -3.34125e-08 0)
(-2.98037e-07 -4.73525e-08 0)
(-2.42138e-07 -5.55225e-08 0)
(-1.88118e-07 -5.832e-08 0)
(-1.36087e-07 -5.614e-08 0)
(-8.61625e-08 -4.93875e-08 0)
(-3.84675e-08 -3.84675e-08 0)
(6.855e-09 -2.37925e-08 0)
(4.96725e-08 -5.775e-09 0)
(8.98475e-08 1.517e-08 0)
(1.2724e-07 3.8625e-08 0)
(1.61725e-07 6.41775e-08 0)
(1.93185e-07 9.14125e-08 0)
(2.2152e-07 1.19925e-07 0)
(2.46638e-07 1.49317e-07 0)
(2.68465e-07 1.79196e-07 0)
(2.86952e-07 2.09183e-07 0)
(3.02065e-07 2.38916e-07 0)
(3.13798e-07 2.68046e-07 0)
(3.22165e-07 2.96245e-07 0)
(3.27208e-07 3.23205e-07 0)
(3.2899e-07 3.4864e-07 0)
(3.276e-07 3.72293e-07 0)
(3.23163e-07 3.9393e-07 0)
(3.15815e-07 4.13353e-07 0)
(3.05728e-07 4.30385e-07 0)
(2.93092e-07 4.44895e-07 0)
(2.78125e-07 4.56772e-07 0)
(2.6107e-07 4.65945e-07 0)
(2.42187e-07 4.72388e-07 0)
(2.21763e-07 4.76097e-07 0)
(2.00095e-07 4.77117e-07 0)
(1.77503e-07 4.75522e-07 0)
(1.54323e-07 4.7143e-07 0)
(1.30908e-07 4.64982e-07 0)
(1.07612e-07 4.56398e-07 0)
(8.48125e-08 4.45887e-07 0)
(6.289e-08 4.33708e-07 0)
(4.2225e-08 4.2014e-07 0)
(2.32275e-08 4.05545e-07 0)
(6.25e-09 3.90277e-07 0)
(-8.275e-09 3.74755e-07 0)
(-1.9925e-08 3.5937e-07 0)
(-2.8355e-08 3.44583e-07 0)
(-3.31525e-08 3.30918e-07 0)
(-3.3925e-08 3.18842e-07 0)
(-3.0275e-08 3.08925e-07 0)
(-2.18175e-08 3.01718e-07 0)
(-8.17e-09 2.978e-07 0)
(-4.3445e-07 -9.13875e-09 0)
(-3.6895e-07 -2.1455e-08 0)
(-3.05585e-07 -2.82175e-08 0)
(-2.4442e-07 -2.9835e-08 0)
(-1.85548e-07 -2.672e-08 0)
(-1.29067e-07 -1.929e-08 0)
(-7.5105e-08 -7.9575e-09 0)
(-2.37925e-08 6.855e-09 0)
(2.4735e-08 2.4735e-08 0)
(7.03375e-08 4.52625e-08 0)
(1.1288e-07 6.8015e-08 0)
(1.5223e-07 9.25875e-08 0)
(1.8826e-07 1.1857e-07 0)
(2.20863e-07 1.45563e-07 0)
(2.49945e-07 1.73177e-07 0)
(2.75424e-07 2.01028e-07 0)
(2.97241e-07 2.28756e-07 0)
(3.15361e-07 2.56008e-07 0)
(3.29769e-07 2.82453e-07 0)
(3.40477e-07 3.07783e-07 0)
(3.47523e-07 3.31705e-07 0)
(3.50965e-07 3.53953e-07 0)
(3.509e-07 3.74293e-07 0)
(3.47445e-07 3.92507e-07 0)
(3.40748e-07 4.08425e-07 0)
(3.3098e-07 4.21883e-07 0)
(3.18345e-07 4.32772e-07 0)
(3.0307e-07 4.41e-07 0)
(2.854e-07 4.46523e-07 0)
(2.6562e-07 4.4932e-07 0)
(2.44025e-07 4.49413e-07 0)
(2.2093e-07 4.46852e-07 0)
(1.9668e-07 4.41723e-07 0)
(1.71628e-07 4.34177e-07 0)
(1.4613e-07 4.24345e-07 0)
(1.20608e-07 4.1243e-07 0)
(9.545e-08 3.98638e-07 0)
(7.1025e-08 3.83267e-07 0)
(4.775e-08 3.666e-07 0)
(2.6075e-08 3.48952e-07 0)
(6.425e-09 3.3065e-07 0)
(-1.0775e-08 3.121e-07 0)
(-2.5125e-08 2.93725e-07 0)
(-3.6225e-08 2.759e-07 0)
(-4.3575e-08 2.591e-07 0)
(-4.68e-08 2.4383e-07 0)
(-4.55e-08 2.30527e-07 0)
(-3.9225e-08 2.19755e-07 0)
(-2.76e-08 2.12003e-07 0)
(-1.02e-08 2.07847e-07 0)
(-4.45763e-07 -5.0545e-09 0)
(-3.74812e-07 -9.8375e-09 0)
(-3.06418e-07 -9.71e-09 0)
(-2.4064e-07 -5.1025e-09 0)
(-1.77573e-07 3.565e-09 0)
(-1.17325e-07 1.5865e-08 0)
(-6.00175e-08 3.1375e-08 0)
(-5.775e-09 4.96725e-08 0)
(4.52625e-08 7.03375e-08 0)
(9.29525e-08 9.29525e-08 0)
(1.37172e-07 1.1711e-07 0)
(1.77795e-07 1.424e-07 0)
(2.147e-07 1.6843e-07 0)
(2.47792e-07 1.9482e-07 0)
(2.76986e-07 2.21199e-07 0)
(3.02216e-07 2.4721e-07 0)
(3.23445e-07 2.72518e-07 0)
(3.40649e-07 2.96806e-07 0)
(3.5384e-07 3.19774e-07 0)
(3.6305e-07 3.41155e-07 0)
(3.68335e-07 3.60695e-07 0)
(3.69795e-07 3.78177e-07 0)
(3.67545e-07 3.9341e-07 0)
(3.61732e-07 4.06227e-07 0)
(3.52538e-07 4.16502e-07 0)
(3.40162e-07 4.24132e-07 0)
(3.24845e-07 4.29052e-07 0)
(3.06843e-07 4.31225e-07 0)
(2.86445e-07 4.30652e-07 0)
(2.6396e-07 4.27375e-07 0)
(2.3972e-07 4.21465e-07 0)
(2.14072e-07 4.12985e-07 0)
(1.8742e-07 4.02135e-07 0)
(1.60125e-07 3.8903e-07 0)
(1.32575e-07 3.73882e-07 0)
(1.052e-07 3.56975e-07 0)
(7.845e-08 3.38475e-07 0)
(5.2775e-08 3.187e-07 0)
(2.8575e-08 2.98e-07 0)
(6.275e-09 2.76725e-07 0)
(-1.3625e-08 2.552e-07 0)
(-3.0675e-08 2.338e-07 0)
(-4.4475e-08 2.12925e-07 0)
(-5.455e-08 1.9305e-07 0)
(-6.0425e-08 1.746e-07 0)
(-6.1725e-08 1.58e-07 0)
(-5.8e-08 1.43725e-07 0)
(-4.88e-08 1.32275e-07 0)
(-3.3725e-08 1.2415e-07 0)
(-1.2325e-08 1.19825e-07 0)
(-4.49342e-07 -1.0855e-09 0)
(-3.73605e-07 1.3925e-09 0)
(-3.0085e-07 8.09e-09 0)
(-2.31145e-07 1.85775e-08 0)
(-1.6458e-07 3.242e-08 0)
(-1.01257e-07 4.91975e-08 0)
(-4.12975e-08 6.848e-08 0)
(1.517e-08 8.98475e-08 0)
(6.8015e-08 1.1288e-07 0)
(1.1711e-07 1.37172e-07 0)
(1.62328e-07 1.62328e-07 0)
(2.0355e-07 1.87948e-07 0)
(2.4068e-07 2.1366e-07 0)
(2.73632e-07 2.39105e-07 0)
(3.02335e-07 2.63934e-07 0)
(3.26743e-07 2.87824e-07 0)
(3.46838e-07 3.10469e-07 0)
(3.62618e-07 3.31585e-07 0)
(3.74118e-07 3.50915e-07 0)
(3.81397e-07 3.68223e-07 0)
(3.84545e-07 3.8331e-07 0)
(3.8368e-07 3.96e-07 0)
(3.7895e-07 4.06143e-07 0)
(3.70537e-07 4.1363e-07 0)
(3.58653e-07 4.18375e-07 0)
(3.4353e-07 4.20333e-07 0)
(3.25438e-07 4.19485e-07 0)
(3.0467e-07 4.15848e-07 0)
(2.8155e-07 4.0947e-07 0)
(2.56433e-07 4.0044e-07 0)
(2.29635e-07 3.88848e-07 0)
(2.016e-07 3.74895e-07 0)
(1.72725e-07 3.587e-07 0)
(1.43375e-07 3.40475e-07 0)
(1.14075e-07 3.205e-07 0)
(8.52e-08 2.99e-07 0)
(5.7175e-08 2.76275e-07 0)
(3.055e-08 2.52625e-07 0)
(5.775e-09 2.284e-07 0)
(-1.6725e-08 2.039e-07 0)
(-3.65e-08 1.79575e-07 0)
(-5.305e-08 1.5575e-07 0)
(-6.5875e-08 1.3285e-07 0)
(-7.455e-08 1.113e-07 0)
(-7.8625e-08 9.15e-08 0)
(-7.7675e-08 7.385e-08 0)
(-7.1225e-08 5.8875e-08 0)
(-5.88e-08 4.6925e-08 0)
(-4.005e-08 3.855e-08 0)
(-1.4525e-08 3.41e-08 0)
(-4.45456e-07 2.74975e-09 0)
(-3.65637e-07 1.218e-08 0)
(-2.89233e-07 2.51075e-08 0)
(-2.1631e-07 4.11025e-08 0)
(-1.46953e-07 5.9735e-08 0)
(-8.1265e-08 8.05825e-08 0)
(-1.93675e-08 1.03223e-07 0)
(3.8625e-08 1.2724e-07 0)
(9.25875e-08 1.5223e-07 0)
(1.424e-07 1.77795e-07 0)
(1.87948e-07 2.0355e-07 0)
(2.29128e-07 2.29127e-07 0)
(2.65857e-07 2.54173e-07 0)
(2.98066e-07 2.78349e-07 0)
(3.25705e-07 3.01339e-07 0)
(3.48752e-07 3.2285e-07 0)
(3.67205e-07 3.4261e-07 0)
(3.81095e-07 3.60375e-07 0)
(3.90478e-07 3.7593e-07 0)
(3.95445e-07 3.8908e-07 0)
(3.96112e-07 3.99667e-07 0)
(3.92627e-07 4.07563e-07 0)
(3.85175e-07 4.1267e-07 0)
(3.73965e-07 4.1492e-07 0)
(3.5924e-07 4.1428e-07 0)
(3.41272e-07 4.1075e-07 0)
(3.2036e-07 4.04365e-07 0)
(2.96827e-07 3.95185e-07 0)
(2.71037e-07 3.83307e-07 0)
(2.43338e-07 3.6886e-07 0)
(2.14175e-07 3.52e-07 0)
(1.83925e-07 3.32925e-07 0)
(1.53e-07 3.11825e-07 0)
(1.21925e-07 2.88975e-07 0)
(9.11e-08 2.64625e-07 0)
(6.0975e-08 2.39e-07 0)
(3.2075e-08 2.12525e-07 0)
(4.9e-09 1.85475e-07 0)
(-2.015e-08 1.5815e-07 0)
(-4.255e-08 1.30975e-07 0)
(-6.1775e-08 1.04275e-07 0)
(-7.74e-08 7.845e-08 0)
(-8.8925e-08 5.3925e-08 0)
(-9.59e-08 3.1025e-08 0)
(-9.7875e-08 1.0225e-08 0)
(-9.435e-08 -8.15e-09 0)
(-8.4925e-08 -2.3625e-08 0)
(-6.9125e-08 -3.585e-08 0)
(-4.655e-08 -4.44e-08 0)
(-1.6775e-08 -4.885e-08 0)
(-4.34412e-07 6.4315e-09 0)
(-3.51247e-07 2.24725e-08 0)
(-2.71927e-07 4.12625e-08 0)
(-1.96517e-07 6.2375e-08 0)
(-1.251e-07 8.53925e-08 0)
(-5.777e-08 1.09892e-07 0)
(5.36e-09 1.35472e-07 0)
(6.41775e-08 1.61725e-07 0)
(1.1857e-07 1.8826e-07 0)
(1.6843e-07 2.147e-07 0)
(2.1366e-07 2.4068e-07 0)
(2.54173e-07 2.65857e-07 0)
(2.89902e-07 2.89902e-07 0)
(3.20798e-07 3.12507e-07 0)
(3.46836e-07 3.33389e-07 0)
(3.68014e-07 3.5229e-07 0)
(3.84362e-07 3.68975e-07 0)
(3.95938e-07 3.83242e-07 0)
(4.02823e-07 3.94912e-07 0)
(4.05135e-07 4.03845e-07 0)
(4.03027e-07 4.09915e-07 0)
(3.96683e-07 4.13052e-07 0)
(3.86307e-07 4.13198e-07 0)
(3.72147e-07 4.10335e-07 0)
(3.54483e-07 4.0448e-07 0)
(3.33615e-07 3.9568e-07 0)
(3.09873e-07 3.84015e-07 0)
(2.83612e-07 3.69588e-07 0)
(2.55225e-07 3.52537e-07 0)
(2.25125e-07 3.3305e-07 0)
(1.937e-07 3.11325e-07 0)
(1.61425e-07 2.87525e-07 0)
(1.28775e-07 2.62e-07 0)
(9.6175e-08 2.3495e-07 0)
(6.41e-08 2.0665e-07 0)
(3.31e-08 1.77475e-07 0)
(3.65e-09 1.477e-07 0)
(-2.3825e-08 1.177e-07 0)
(-4.8725e-08 8.7775e-08 0)
(-7.06e-08 5.8375e-08 0)
(-8.9025e-08 2.9775e-08 0)
(-1.034e-07 2.375e-09 0)
(-1.133e-07 -2.3425e-08 0)
(-1.1825e-07 -4.7275e-08 0)
(-1.178e-07 -6.8775e-08 0)
(-1.11525e-07 -8.7575e-08 0)
(-9.8925e-08 -1.0335e-07 0)
(-7.9575e-08 -1.1565e-07 0)
(-5.305e-08 -1.24225e-07 0)
(-1.8975e-08 -1.28625e-07 0)
(-4.16552e-07 9.94075e-09 0)
(-3.30806e-07 3.222e-08 0)
(-2.4933e-07 5.64775e-08 0)
(-1.7218e-07 8.23025e-08 0)
(-9.9435e-08 1.09283e-07 0)
(-3.1185e-08 1.3702e-07 0)
(3.2465e-08 1.65115e-07 0)
(9.14125e-08 1.93185e-07 0)
(1.45563e-07 2.20862e-07 0)
(1.9482e-07 2.47792e-07 0)
(2.39105e-07 2.73631e-07 0)
(2.78349e-07 2.98066e-07 0)
(3.12507e-07 3.20798e-07 0)
(3.41553e-07 3.41553e-07 0)
(3.65489e-07 3.60084e-07 0)
(3.84337e-07 3.76173e-07 0)
(3.98157e-07 3.89622e-07 0)
(4.07033e-07 4.0027e-07 0)
(4.1108e-07 4.07982e-07 0)
(4.10447e-07 4.12662e-07 0)
(4.0532e-07 4.1424e-07 0)
(3.9591e-07 4.1268e-07 0)
(3.82457e-07 4.07972e-07 0)
(3.65247e-07 4.00152e-07 0)
(3.44585e-07 3.89282e-07 0)
(3.20807e-07 3.75448e-07 0)
(2.94268e-07 3.58787e-07 0)
(2.6535e-07 3.39425e-07 0)
(2.345e-07 3.17575e-07 0)
(2.02125e-07 2.93425e-07 0)
(1.6865e-07 2.672e-07 0)
(1.346e-07 2.392e-07 0)
(1.00425e-07 2.09625e-07 0)
(6.6575e-08 1.7885e-07 0)
(3.3625e-08 1.47125e-07 0)
(2.025e-09 1.1485e-07 0)
(-2.77e-08 8.2275e-08 0)
(-5.5025e-08 4.98e-08 0)
(-7.9475e-08 1.78e-08 0)
(-1.0055e-07 -1.3425e-08 0)
(-1.17775e-07 -4.35e-08 0)
(-1.306e-07 -7.2025e-08 0)
(-1.38575e-07 -9.87e-08 0)
(-1.4125e-07 -1.23125e-07 0)
(-1.38175e-07 -1.4505e-07 0)
(-1.28925e-07 -1.64025e-07 0)
(-1.13e-07 -1.798e-07 0)
(-9e-08 -1.9205e-07 0)
(-5.9525e-08 -2.005e-07 0)
(-2.1175e-08 -2.04865e-07 0)
(-3.92252e-07 1.32595e-08 0)
(-3.04711e-07 4.13725e-08 0)
(-2.21845e-07 7.0685e-08 0)
(-1.43713e-07 1.00795e-07 0)
(-7.03825e-08 1.31313e-07 0)
(-1.9375e-09 1.61853e-07 0)
(6.1525e-08 1.9204e-07 0)
(1.19925e-07 2.2152e-07 0)
(1.73178e-07 2.49945e-07 0)
(2.21199e-07 2.76986e-07 0)
(2.63934e-07 3.02335e-07 0)
(3.01339e-07 3.25705e-07 0)
(3.33389e-07 3.46836e-07 0)
(3.60084e-07 3.65489e-07 0)
(3.81455e-07 3.81455e-07 0)
(3.97553e-07 3.94553e-07 0)
(4.0846e-07 4.04633e-07 0)
(4.14298e-07 4.11573e-07 0)
(4.15215e-07 4.15288e-07 0)
(4.11392e-07 4.1572e-07 0)
(4.03045e-07 4.12853e-07 0)
(3.90415e-07 4.06688e-07 0)
(3.7378e-07 3.97273e-07 0)
(3.53458e-07 3.84683e-07 0)
(3.29777e-07 3.69008e-07 0)
(3.0312e-07 3.50418e-07 0)
(2.7385e-07 3.2905e-07 0)
(2.424e-07 3.05125e-07 0)
(2.09225e-07 2.78825e-07 0)
(1.7475e-07 2.504e-07 0)
(1.39475e-07 2.2015e-07 0)
(1.0385e-07 1.88325e-07 0)
(6.8425e-08 1.55225e-07 0)
(3.3675e-08 1.212e-07 0)
(1e-10 8.6575e-08 0)
(-3.175e-08 5.1625e-08 0)
(-6.14e-08 1.6775e-08 0)
(-8.83e-08 -1.7675e-08 0)
(-1.1195e-07 -5.1325e-08 0)
(-1.319e-07 -8.39e-08 0)
(-1.47625e-07 -1.15e-07 0)
(-1.586e-07 -1.44275e-07 0)
(-1.644e-07 -1.71425e-07 0)
(-1.646e-07 -1.9615e-07 0)
(-1.587e-07 -2.18125e-07 0)
(-1.46275e-07 -2.3703e-07 0)
(-1.2695e-07 -2.52605e-07 0)
(-1.00275e-07 -2.64638e-07 0)
(-6.5865e-08 -2.72855e-07 0)
(-2.334e-08 -2.77083e-07 0)
(-3.6192e-07 1.637e-08 0)
(-2.7338e-07 4.9891e-08 0)
(-1.89907e-07 8.38175e-08 0)
(-1.11552e-07 1.17767e-07 0)
(-3.83775e-08 1.5138e-07 0)
(2.95425e-08 1.8429e-07 0)
(9.21325e-08 2.16153e-07 0)
(1.49317e-07 2.46638e-07 0)
(2.01028e-07 2.75424e-07 0)
(2.4721e-07 3.02216e-07 0)
(2.87824e-07 3.26743e-07 0)
(3.2285e-07 3.48752e-07 0)
(3.5229e-07 3.68014e-07 0)
(3.76172e-07 3.84337e-07 0)
(3.94553e-07 3.97553e-07 0)
(4.07515e-07 4.07515e-07 0)
(4.15178e-07 4.14123e-07 0)
(4.17688e-07 4.17303e-07 0)
(4.15227e-07 4.17008e-07 0)
(4.08012e-07 4.13233e-07 0)
(3.96287e-07 4.05995e-07 0)
(3.8033e-07 3.95355e-07 0)
(3.60452e-07 3.81403e-07 0)
(3.36982e-07 3.64253e-07 0)
(3.1032e-07 3.44045e-07 0)
(2.8085e-07 3.21e-07 0)
(2.48975e-07 2.9525e-07 0)
(2.15125e-07 2.671e-07 0)
(1.79775e-07 2.3675e-07 0)
(1.4345e-07 2.045e-07 0)
(1.06575e-07 1.70625e-07 0)
(6.9675e-08 1.3545e-07 0)
(3.33e-08 9.9325e-08 0)
(-2.075e-09 6.2525e-08 0)
(-3.595e-08 2.5425e-08 0)
(-6.7775e-08 -1.165e-08 0)
(-9.7e-08 -4.83e-08 0)
(-1.23125e-07 -8.425e-08 0)
(-1.457e-07 -1.191e-07 0)
(-1.64225e-07 -1.52575e-07 0)
(-1.7815e-07 -1.84275e-07 0)
(-1.87025e-07 -2.139e-07 0)
(-1.9045e-07 -2.412e-07 0)
(-1.8795e-07 -2.6585e-07 0)
(-1.79055e-07 -2.87565e-07 0)
(-1.63405e-07 -3.06158e-07 0)
(-1.40608e-07 -3.21367e-07 0)
(-1.1025e-07 -3.33002e-07 0)
(-7.197e-08 -3.40897e-07 0)
(-2.54025e-08 -3.44905e-07 0)
(-3.25991e-07 1.92553e-08 0)
(-2.37263e-07 5.77282e-08 0)
(-1.53969e-07 9.58075e-08 0)
(-7.615e-08 1.33148e-07 0)
(-3.86e-09 1.69407e-07 0)
(6.2835e-08 2.04255e-07 0)
(1.23872e-07 2.37375e-07 0)
(1.79196e-07 2.68465e-07 0)
(2.28756e-07 2.97241e-07 0)
(2.72518e-07 3.23445e-07 0)
(3.10469e-07 3.46838e-07 0)
(3.4261e-07 3.67205e-07 0)
(3.68975e-07 3.84362e-07 0)
(3.89622e-07 3.98157e-07 0)
(4.04633e-07 4.0846e-07 0)
(4.14122e-07 4.15177e-07 0)
(4.18247e-07 4.18247e-07 0)
(4.17183e-07 4.1764e-07 0)
(4.11145e-07 4.13357e-07 0)
(4.0038e-07 4.0544e-07 0)
(3.85168e-07 3.9395e-07 0)
(3.65823e-07 3.78995e-07 0)
(3.42677e-07 3.60707e-07 0)
(3.161e-07 3.39245e-07 0)
(2.86525e-07 3.148e-07 0)
(2.54325e-07 2.87575e-07 0)
(2.1995e-07 2.57825e-07 0)
(1.839e-07 2.258e-07 0)
(1.46625e-07 1.91825e-07 0)
(1.08625e-07 1.56175e-07 0)
(7.0425e-08 1.1915e-07 0)
(3.255e-08 8.1125e-08 0)
(-4.5e-09 4.24e-08 0)
(-4.0225e-08 3.3e-09 0)
(-7.4075e-08 -3.5775e-08 0)
(-1.05475e-07 -7.4475e-08 0)
(-1.34e-07 -1.12475e-07 0)
(-1.591e-07 -1.4945e-07 0)
(-1.80275e-07 -1.8505e-07 0)
(-1.97075e-07 -2.1895e-07 0)
(-2.0895e-07 -2.5085e-07 0)
(-2.15525e-07 -2.8045e-07 0)
(-2.1635e-07 -3.0753e-07 0)
(-2.10965e-07 -3.31777e-07 0)
(-1.99008e-07 -3.53005e-07 0)
(-1.80077e-07 -3.7103e-07 0)
(-1.53795e-07 -3.8566e-07 0)
(-1.19805e-07 -3.9676e-07 0)
(-7.77675e-08 -4.0423e-07 0)
(-2.73475e-08 -4.07985e-07 0)
(-2.84936e-07 2.18998e-08 0)
(-1.96828e-07 6.4842e-08 0)
(-1.14488e-07 1.06603e-07 0)
(-3.79525e-08 1.46868e-07 0)
(3.273e-08 1.85326e-07 0)
(9.75103e-08 2.21677e-07 0)
(1.56342e-07 2.55642e-07 0)
(2.09183e-07 2.86952e-07 0)
(2.56008e-07 3.15362e-07 0)
(2.96806e-07 3.40649e-07 0)
(3.31585e-07 3.62618e-07 0)
(3.60375e-07 3.81095e-07 0)
(3.83242e-07 3.95938e-07 0)
(4.0027e-07 4.07033e-07 0)
(4.11572e-07 4.14298e-07 0)
(4.17302e-07 4.17688e-07 0)
(4.1764e-07 4.17183e-07 0)
(4.12798e-07 4.12798e-07 0)
(4.03027e-07 4.04588e-07 0)
(3.88605e-07 3.92625e-07 0)
(3.69842e-07 3.77033e-07 0)
(3.47088e-07 3.57953e-07 0)
(3.20702e-07 3.3555e-07 0)
(2.91075e-07 3.10025e-07 0)
(2.5865e-07 2.8165e-07 0)
(2.23875e-07 2.506e-07 0)
(1.872e-07 2.172e-07 0)
(1.49125e-07 1.8175e-07 0)
(1.1015e-07 1.4455e-07 0)
(7.0775e-08 1.0595e-07 0)
(3.1525e-08 6.625e-08 0)
(-7.075e-09 2.58e-08 0)
(-4.4525e-08 -1.505e-08 0)
(-8.025e-08 -5.5925e-08 0)
(-1.13725e-07 -9.645e-08 0)
(-1.44475e-07 -1.36325e-07 0)
(-1.71975e-07 -1.75225e-07 0)
(-1.957e-07 -2.1275e-07 0)
(-2.152e-07 -2.4865e-07 0)
(-2.30025e-07 -2.82575e-07 0)
(-2.3965e-07 -3.14275e-07 0)
(-2.43705e-07 -3.43503e-07 0)
(-2.41777e-07 -3.6999e-07 0)
(-2.33425e-07 -3.93568e-07 0)
(-2.18307e-07 -4.14043e-07 0)
(-1.9606e-07 -4.31268e-07 0)
(-1.66338e-07 -4.45133e-07 0)
(-1.2882e-07 -4.55563e-07 0)
(-8.3195e-08 -4.6251e-07 0)
(-2.91575e-08 -4.65973e-07 0)
(-2.39249e-07 2.42903e-08 0)
(-1.5256e-07 7.12025e-08 0)
(-7.19425e-08 1.16157e-07 0)
(2.57275e-09 1.58873e-07 0)
(7.09495e-08 1.99074e-07 0)
(1.33151e-07 2.36501e-07 0)
(1.89147e-07 2.70906e-07 0)
(2.38916e-07 3.02065e-07 0)
(2.82453e-07 3.29769e-07 0)
(3.19775e-07 3.53839e-07 0)
(3.50915e-07 3.74117e-07 0)
(3.7593e-07 3.90477e-07 0)
(3.94912e-07 4.02822e-07 0)
(4.07983e-07 4.1108e-07 0)
(4.15288e-07 4.15215e-07 0)
(4.17007e-07 4.15227e-07 0)
(4.13358e-07 4.11145e-07 0)
(4.04588e-07 4.03028e-07 0)
(3.90972e-07 3.90972e-07 0)
(3.72825e-07 3.751e-07 0)
(3.50495e-07 3.55588e-07 0)
(3.2434e-07 3.32577e-07 0)
(2.9475e-07 3.06325e-07 0)
(2.622e-07 2.7705e-07 0)
(2.271e-07 2.45025e-07 0)
(1.89875e-07 2.1055e-07 0)
(1.511e-07 1.739e-07 0)
(1.1125e-07 1.35425e-07 0)
(7.0825e-08 9.545e-08 0)
(3.0325e-08 5.4325e-08 0)
(-9.725e-09 1.24e-08 0)
(-4.875e-08 -2.9975e-08 0)
(-8.6225e-08 -7.245e-08 0)
(-1.21625e-07 -1.146e-07 0)
(-1.54475e-07 -1.5615e-07 0)
(-1.8425e-07 -1.96725e-07 0)
(-2.10425e-07 -2.36e-07 0)
(-2.32525e-07 -2.73675e-07 0)
(-2.501e-07 -3.09425e-07 0)
(-2.627e-07 -3.43e-07 0)
(-2.69877e-07 -3.7412e-07 0)
(-2.7124e-07 -4.0261e-07 0)
(-2.66415e-07 -4.28222e-07 0)
(-2.55017e-07 -4.50827e-07 0)
(-2.36708e-07 -4.7029e-07 0)
(-2.11168e-07 -4.86517e-07 0)
(-1.7809e-07 -4.99455e-07 0)
(-1.37183e-07 -5.09085e-07 0)
(-8.81775e-08 -5.1543e-07 0)
(-3.081e-08 -5.1855e-07 0)
(-1.89443e-07 2.64145e-08 0)
(-1.04961e-07 7.67792e-08 0)
(-2.68175e-08 1.24429e-07 0)
(4.4964e-08 1.69119e-07 0)
(1.10358e-07 2.10613e-07 0)
(1.69343e-07 2.48691e-07 0)
(2.21906e-07 2.83148e-07 0)
(2.68046e-07 3.13798e-07 0)
(3.07783e-07 3.40477e-07 0)
(3.41155e-07 3.6305e-07 0)
(3.68223e-07 3.81397e-07 0)
(3.8908e-07 3.95445e-07 0)
(4.03845e-07 4.05135e-07 0)
(4.12662e-07 4.10448e-07 0)
(4.1572e-07 4.11392e-07 0)
(4.13232e-07 4.08012e-07 0)
(4.0544e-07 4.0038e-07 0)
(3.92625e-07 3.88605e-07 0)
(3.751e-07 3.72825e-07 0)
(3.5322e-07 3.5322e-07 0)
(3.2732e-07 3.29965e-07 0)
(2.97825e-07 3.03275e-07 0)
(2.65175e-07 2.7345e-07 0)
(2.29775e-07 2.40775e-07 0)
(1.9215e-07 2.0545e-07 0)
(1.5275e-07 1.679e-07 0)
(1.12075e-07 1.28425e-07 0)
(7.0675e-08 8.735e-08 0)
(2.905e-08 4.5025e-08 0)
(-1.2275e-08 1.825e-09 0)
(-5.2775e-08 -4.185e-08 0)
(-9.1925e-08 -8.5675e-08 0)
(-1.2915e-07 -1.2925e-07 0)
(-1.6395e-07 -1.72275e-07 0)
(-1.9585e-07 -2.14375e-07 0)
(-2.24325e-07 -2.55175e-07 0)
(-2.48925e-07 -2.944e-07 0)
(-2.69125e-07 -3.31775e-07 0)
(-2.84525e-07 -3.66975e-07 0)
(-2.9472e-07 -3.99785e-07 0)
(-2.9926e-07 -4.29977e-07 0)
(-2.97808e-07 -4.5738e-07 0)
(-2.89995e-07 -4.81825e-07 0)
(-2.75492e-07 -5.032e-07 0)
(-2.53998e-07 -5.21428e-07 0)
(-2.25225e-07 -5.3647e-07 0)
(-1.88905e-07 -5.48325e-07 0)
(-1.44795e-07 -5.5704e-07 0)
(-9.266e-08 -5.62708e-07 0)
(-3.22775e-08 -5.6545e-07 0)
(-1.36055e-07 2.8262e-08 0)
(-5.45458e-08 8.15485e-08 0)
(2.03968e-08 1.31387e-07 0)
(8.87574e-08 1.77573e-07 0)
(1.50523e-07 2.19915e-07 0)
(2.05686e-07 2.58232e-07 0)
(2.54253e-07 2.92363e-07 0)
(2.96245e-07 3.22165e-07 0)
(3.31705e-07 3.47522e-07 0)
(3.60695e-07 3.68335e-07 0)
(3.8331e-07 3.84545e-07 0)
(3.99667e-07 3.96112e-07 0)
(4.09915e-07 4.03028e-07 0)
(4.1424e-07 4.0532e-07 0)
(4.12853e-07 4.03045e-07 0)
(4.05995e-07 3.96287e-07 0)
(3.9395e-07 3.85168e-07 0)
(3.77033e-07 3.69842e-07 0)
(3.55588e-07 3.50495e-07 0)
(3.29965e-07 3.2732e-07 0)
(3.0055e-07 3.0055e-07 0)
(2.67825e-07 2.705e-07 0)
(2.3225e-07 2.374e-07 0)
(1.942e-07 2.016e-07 0)
(1.54225e-07 1.63425e-07 0)
(1.1285e-07 1.23175e-07 0)
(7.055e-08 8.125e-08 0)
(2.785e-08 3.8e-08 0)
(-1.47e-08 -6.2e-09 0)
(-5.655e-08 -5.0975e-08 0)
(-9.7225e-08 -9.5975e-08 0)
(-1.3615e-07 -1.40775e-07 0)
(-1.72825e-07 -1.85025e-07 0)
(-2.0675e-07 -2.284e-07 0)
(-2.37375e-07 -2.70575e-07 0)
(-2.64275e-07 -3.11175e-07 0)
(-2.87025e-07 -3.49925e-07 0)
(-3.051e-07 -3.8656e-07 0)
(-3.1811e-07 -4.2085e-07 0)
(-3.25703e-07 -4.52535e-07 0)
(-3.27472e-07 -4.81463e-07 0)
(-3.23088e-07 -5.0748e-07 0)
(-3.12235e-07 -5.30473e-07 0)
(-2.9462e-07 -5.50375e-07 0)
(-2.69978e-07 -5.67162e-07 0)
(-2.38065e-07 -5.80843e-07 0)
(-1.9866e-07 -5.91483e-07 0)
(-1.51565e-07 -5.99185e-07 0)
(-9.65875e-08 -6.04103e-07 0)
(-3.35525e-08 -6.0644e-07 0)
(-7.9633e-08 2.98251e-08 0)
(-1.83625e-09 8.54929e-08 0)
(6.92074e-08 1.37011e-07 0)
(1.33492e-07 1.8422e-07 0)
(1.91017e-07 2.2697e-07 0)
(2.41791e-07 2.65126e-07 0)
(2.85839e-07 2.9857e-07 0)