/*--------------------------------*- C++ -*----------------------------------*\
| =========                 |                                                 |
| \\      /  F ield         | OpenFOAM: The Open Source CFD Toolbox           |
|  \\    /   O peration     | Version:  2112                                  |
|   \\  /    A nd           | Website:  www.openfoam.com                      |
|    \\/     M anipulation  |                                                 |
\*---------------------------------------------------------------------------*/
FoamFile
{
    version     2.0;
    format      ascii;
    arch        "LSB;label=64;scalar=64";
    class       volScalarField;
    location    "0.1";
    object      T;
}
// * * * * * * * * * * * * * * * * * * * * * * * * * * * * * * * * * * * * * //

dimensions      [0 0 0 1 0 0 0];

internalField   nonuniform List<scalar> 
2500
(
-4.61623e-10
-1.29617e-09
-2.04207e-09
-2.69944e-09
-3.26859e-09
-3.75003e-09
-4.14453e-09
-4.45316e-09
-4.67731e-09
-4.81871e-09
-4.87949e-09
-4.86213e-09
-4.7695e-09
-4.60487e-09
-4.37187e-09
-4.07449e-09
-3.71707e-09
-3.30428e-09
-2.84108e-09
-2.33267e-09
-1.7845e-09
-1.20219e-09
-5.91495e-10
4.17139e-11
6.91538e-10
1.35208e-09
2.01748e-09
2.68201e-09
3.34008e-09
3.98633e-09
4.61565e-09
5.22324e-09
5.80467e-09
6.35594e-09
6.87347e-09
7.3542e-09
7.79563e-09
8.19581e-09
8.55341e-09
8.86776e-09
9.13885e-09
9.36738e-09
9.55475e-09
9.70313e-09
9.81541e-09
9.89526e-09
9.94714e-09
9.97624e-09
9.9886e-09
9.99098e-09
-1.29617e-09
-3.62397e-09
-5.68883e-09
-7.49263e-09
-9.03772e-09
-1.0327e-08
-1.13642e-08
-1.21536e-08
-1.27007e-08
-1.30118e-08
-1.30942e-08
-1.29561e-08
-1.2607e-08
-1.20572e-08
-1.13182e-08
-1.04023e-08
-9.32256e-09
-8.09317e-09
-6.72888e-09
-5.24507e-09
-3.65771e-09
-1.98313e-09
-2.37995e-10
1.56091e-09
3.39677e-09
5.25288e-09
7.11281e-09
8.96057e-09
1.07807e-08
1.25584e-08
1.42799e-08
1.59321e-08
1.75034e-08
1.89832e-08
2.03623e-08
2.16332e-08
2.27896e-08
2.38274e-08
2.4744e-08
2.55386e-08
2.62126e-08
2.67692e-08
2.72138e-08
2.7554e-08
2.77991e-08
2.79612e-08
2.80541e-08
2.80939e-08
2.80992e-08
2.80904e-08
-2.04207e-09
-5.68883e-09
-8.90275e-09
-1.16888e-08
-1.40526e-08
-1.60009e-08
-1.75412e-08
-1.86825e-08
-1.94353e-08
-1.98112e-08
-1.98237e-08
-1.94876e-08
-1.88194e-08
-1.78371e-08
-1.65603e-08
-1.50097e-08
-1.32076e-08
-1.11774e-08
-8.94348e-09
-6.53111e-09
-3.96633e-09
-1.27564e-09
1.51412e-09
4.37602e-09
7.28325e-09
1.02094e-08
1.31284e-08
1.60154e-08
1.88461e-08
2.1598e-08
2.42495e-08
2.67812e-08
2.91753e-08
3.14162e-08
3.34907e-08
3.5388e-08
3.70998e-08
3.86208e-08
3.99485e-08
4.10835e-08
4.20296e-08
4.27936e-08
4.3386e-08
4.38202e-08
4.41134e-08
4.42862e-08
4.43624e-08
4.43696e-08
4.43388e-08
4.43044e-08
-2.69944e-09
-7.49263e-09
-1.16888e-08
-1.52972e-08
-1.83279e-08
-2.07923e-08
-2.27032e-08
-2.40751e-08
-2.49241e-08
-2.52685e-08
-2.51282e-08
-2.45254e-08
-2.34841e-08
-2.20304e-08
-2.0192e-08
-1.79986e-08
-1.54813e-08
-1.26727e-08
-9.60658e-09
-6.31777e-09
-2.84184e-09
7.85168e-10
4.52696e-09
8.34732e-09
1.22104e-08
1.60809e-08
1.99247e-08
2.37088e-08
2.74018e-08
3.0974e-08
3.43982e-08
3.76495e-08
4.07054e-08
4.35469e-08
4.61578e-08
4.85256e-08
5.06412e-08
5.24994e-08
5.40992e-08
5.54433e-08
5.65392e-08
5.73983e-08
5.80366e-08
5.84749e-08
5.87381e-08
5.88561e-08
5.88632e-08
5.87984e-08
5.87054e-08
5.86325e-08
-3.26859e-09
-9.03772e-09
-1.40526e-08
-1.83279e-08
-2.1879e-08
-2.47232e-08
-2.68793e-08
-2.8368e-08
-2.92121e-08
-2.94368e-08
-2.90695e-08
-2.814e-08
-2.66801e-08
-2.47243e-08
-2.23088e-08
-1.94718e-08
-1.62536e-08
-1.26955e-08
-8.84057e-09
-4.73255e-09
-4.16035e-10
4.06405e-09
8.66275e-09
1.33354e-08
1.80381e-08
2.27279e-08
2.73633e-08
3.19046e-08
3.63143e-08
4.05574e-08
4.46016e-08
4.84181e-08
5.19813e-08
5.52697e-08
5.82656e-08
6.09559e-08
6.3332e-08
6.53901e-08
6.71313e-08
6.85621e-08
6.9694e-08
7.05441e-08
7.11349e-08
7.14944e-08
7.16565e-08
7.16603e-08
7.15509e-08
7.13789e-08
7.12004e-08
7.10775e-08
-3.75003e-09
-1.0327e-08
-1.60009e-08
-2.07923e-08
-2.47232e-08
-2.78174e-08
-3.01004e-08
-3.15998e-08
-3.2346e-08
-3.23714e-08
-3.17114e-08
-3.04035e-08
-2.84881e-08
-2.60078e-08
-2.30073e-08
-1.95337e-08
-1.56357e-08
-1.13635e-08
-6.7686e-09
-1.90345e-09
3.17906e-09
8.42584e-09
1.37841e-08
1.92016e-08
2.46273e-08
3.00117e-08
3.53071e-08
4.04683e-08
4.54527e-08
5.02212e-08
5.47379e-08
5.89712e-08
6.28936e-08
6.64823e-08
6.97194e-08
7.25925e-08
7.50943e-08
7.72235e-08
7.89846e-08
8.03882e-08
8.14511e-08
8.21966e-08
8.26542e-08
8.286e-08
8.28565e-08
8.26928e-08
8.24247e-08
8.21141e-08
8.18298e-08
8.16469e-08
-4.14453e-09
-1.13642e-08
-1.75412e-08
-2.27032e-08
-2.68793e-08
-3.01004e-08
-3.23993e-08
-3.38115e-08
-3.43748e-08
-3.41298e-08
-3.31198e-08
-3.13906e-08
-2.89909e-08
-2.59717e-08
-2.23863e-08
-1.82901e-08
-1.37402e-08
-8.79509e-09
-3.51453e-09
2.04117e-09
7.8114e-09
1.37357e-08
1.97542e-08
2.58082e-08
3.18404e-08
3.77957e-08
4.36214e-08
4.92678e-08
5.46887e-08
5.98418e-08
6.46889e-08
6.91967e-08
7.33369e-08
7.70869e-08
8.04295e-08
8.33537e-08
8.58551e-08
8.79355e-08
8.96037e-08
9.08754e-08
9.17732e-08
9.23269e-08
9.25738e-08
9.25582e-08
9.23317e-08
9.19533e-08
9.14893e-08
9.1013e-08
9.06053e-08
9.0354e-08
-4.45316e-09
-1.21536e-08
-1.86825e-08
-2.40751e-08
-2.8368e-08
-3.15998e-08
-3.38115e-08
-3.50463e-08
-3.53502e-08
-3.47721e-08
-3.33633e-08
-3.11782e-08
-2.82737e-08
-2.47092e-08
-2.05463e-08
-1.58484e-08
-1.06808e-08
-5.1098e-09
7.97263e-10
6.97278e-09
1.33492e-08
1.98594e-08
2.64375e-08
3.3019e-08
3.95415e-08
4.59455e-08
5.21741e-08
5.81746e-08
6.38978e-08
6.92996e-08
7.43406e-08
7.89871e-08
8.32111e-08
8.69909e-08
9.03112e-08
9.31638e-08
9.55475e-08
9.74683e-08
9.894e-08
9.99839e-08
1.00629e-07
1.00913e-07
1.00879e-07
1.00582e-07
1.00082e-07
9.94478e-08
9.87559e-08
9.80908e-08
9.75449e-08
9.72181e-08
-4.67731e-09
-1.27007e-08
-1.94353e-08
-2.49241e-08
-2.92121e-08
-3.2346e-08
-3.43748e-08
-3.53502e-08
-3.53265e-08
-3.43608e-08
-3.2513e-08
-2.98456e-08
-2.64238e-08
-2.23152e-08
-1.75893e-08
-1.23174e-08
-6.57234e-09
-4.27755e-10
6.04212e-09
1.2763e-08
1.96612e-08
2.66639e-08
3.36998e-08
4.06999e-08
4.75976e-08
5.43298e-08
6.08368e-08
6.70636e-08
7.29596e-08
7.84796e-08
8.35844e-08
8.82406e-08
9.24216e-08
9.61078e-08
9.92867e-08
1.01953e-07
1.04111e-07
1.05771e-07
1.06952e-07
1.07681e-07
1.07995e-07
1.07938e-07
1.07564e-07
1.06933e-07
1.06115e-07
1.0519e-07
1.04243e-07
1.0337e-07
1.02674e-07
1.02266e-07
-4.81871e-09
-1.30118e-08
-1.98112e-08
-2.52685e-08
-2.94368e-08
-3.23714e-08
-3.41298e-08
-3.47721e-08
-3.43608e-08
-3.29616e-08
-3.06427e-08
-2.74747e-08
-2.35309e-08
-1.88867e-08
-1.36192e-08
-7.80727e-09
-1.53055e-09
5.13052e-09
1.20954e-08
1.92841e-08
2.66174e-08
3.40175e-08
4.14092e-08
4.87193e-08
5.58785e-08
6.28208e-08
6.9485e-08
7.58146e-08
8.17587e-08
8.72724e-08
9.23171e-08
9.68612e-08
1.0088e-07
1.04358e-07
1.07285e-07
1.09661e-07
1.11493e-07
1.12799e-07
1.13604e-07
1.13942e-07
1.13855e-07
1.13397e-07
1.12628e-07
1.11618e-07
1.10446e-07
1.09201e-07
1.07977e-07
1.06881e-07
1.06025e-07
1.05532e-07
-4.87949e-09
-1.30942e-08
-1.98237e-08
-2.51282e-08
-2.90695e-08
-3.17114e-08
-3.31198e-08
-3.33633e-08
-3.2513e-08
-3.06427e-08
-2.78286e-08
-2.41496e-08
-1.96866e-08
-1.45224e-08
-8.74134e-09
-2.42901e-09
4.32839e-09
1.14445e-08
1.88331e-08
2.64092e-08
3.4089e-08
4.1791e-08
4.94362e-08
5.6949e-08
6.42577e-08
7.12951e-08
7.79989e-08
8.43126e-08
9.01857e-08
9.55746e-08
1.00443e-07
1.0476e-07
1.08507e-07
1.11669e-07
1.14242e-07
1.16232e-07
1.1765e-07
1.18519e-07
1.18872e-07
1.1875e-07
1.18203e-07
1.1729e-07
1.16081e-07
1.14655e-07
1.13099e-07
1.1151e-07
1.09992e-07
1.08661e-07
1.0764e-07
1.07059e-07
-4.86213e-09
-1.29561e-08
-1.94876e-08
-2.45254e-08
-2.814e-08
-3.04035e-08
-3.13906e-08
-3.11782e-08
-2.98456e-08
-2.74747e-08
-2.41496e-08
-1.99568e-08
-1.49845e-08
-9.32251e-09
-3.06186e-09
3.7057e-09
1.08882e-08
1.83939e-08
2.6132e-08
3.4013e-08
4.19498e-08
4.98575e-08
5.76549e-08
6.52645e-08
7.26135e-08
7.96341e-08
8.62644e-08
9.24485e-08
9.81375e-08
1.0329e-07
1.07871e-07
1.11857e-07
1.15228e-07
1.17977e-07
1.20105e-07
1.21621e-07
1.22544e-07
1.22904e-07
1.2274e-07
1.22098e-07
1.21038e-07
1.19627e-07
1.17942e-07
1.1607e-07
1.14106e-07
1.12155e-07
1.10332e-07
1.08758e-07
1.07567e-07
1.06896e-07
-4.7695e-09
-1.2607e-08
-1.88194e-08
-2.34841e-08
-2.66801e-08
-2.84881e-08
-2.89909e-08
-2.82737e-08
-2.64238e-08
-2.35309e-08
-1.96866e-08
-1.49845e-08
-9.51968e-09
-3.38843e-09
3.31223e-09
1.0485e-08
1.80328e-08
2.58595e-08
3.38703e-08
4.19724e-08
5.00757e-08
5.80935e-08
6.5943e-08
7.35458e-08
8.08289e-08
8.77251e-08
9.41735e-08
1.0012e-07
1.05518e-07
1.10329e-07
1.14523e-07
1.18077e-07
1.2098e-07
1.23228e-07
1.24827e-07
1.25792e-07
1.26151e-07
1.25938e-07
1.25198e-07
1.23989e-07
1.22374e-07
1.20428e-07
1.18238e-07
1.15896e-07
1.13508e-07
1.11184e-07
1.09047e-07
1.07227e-07
1.05864e-07
1.05105e-07
-4.60487e-09
-1.20572e-08
-1.78371e-08
-2.20304e-08
-2.47243e-08
-2.60078e-08
-2.59717e-08
-2.47092e-08
-2.23152e-08
-1.88867e-08
-1.45224e-08
-9.32251e-09
-3.38843e-09
3.17776e-09
1.02737e-08
1.77973e-08
2.56472e-08
3.37236e-08
4.19285e-08
5.01668e-08
5.83464e-08
6.63796e-08
7.41828e-08
8.16779e-08
8.87927e-08
9.54613e-08
1.01625e-07
1.07232e-07
1.12239e-07
1.16612e-07
1.20324e-07
1.23358e-07
1.25708e-07
1.27375e-07
1.28371e-07
1.2872e-07
1.28452e-07
1.27612e-07
1.26251e-07
1.24433e-07
1.22229e-07
1.19722e-07
1.17005e-07
1.14179e-07
1.11355e-07
1.08652e-07
1.06198e-07
1.04132e-07
1.02598e-07
1.01751e-07
-4.37187e-09
-1.13182e-08
-1.65603e-08
-2.0192e-08
-2.23088e-08
-2.30073e-08
-2.23863e-08
-2.05463e-08
-1.75893e-08
-1.36192e-08
-8.74134e-09
-3.06186e-09
3.31223e-09
1.02737e-08
1.77156e-08
2.55319e-08
3.36177e-08
4.18703e-08
5.01896e-08
5.84789e-08
6.66453e-08
7.46007e-08
8.22619e-08
8.95519e-08
9.64002e-08
1.02743e-07
1.08525e-07
1.13697e-07
1.18221e-07
1.22066e-07
1.25211e-07
1.27645e-07
1.29365e-07
1.30382e-07
1.30712e-07
1.30386e-07
1.29442e-07
1.2793e-07
1.2591e-07
1.23452e-07
1.20634e-07
1.17547e-07
1.1429e-07
1.10971e-07
1.07706e-07
1.04623e-07
1.01855e-07
9.9545e-08
9.7844e-08
9.69104e-08
-4.07449e-09
-1.04023e-08
-1.50097e-08
-1.79986e-08
-1.94718e-08
-1.95337e-08
-1.82901e-08
-1.58484e-08
-1.23174e-08
-7.80727e-09
-2.42901e-09
3.7057e-09
1.0485e-08
1.77973e-08
2.55319e-08
3.35794e-08
4.18325e-08
5.01865e-08
5.854e-08
6.67956e-08
7.48605e-08
8.26471e-08
9.00737e-08
9.70652e-08
1.03553e-07
1.09478e-07
1.14787e-07
1.19437e-07
1.23392e-07
1.26628e-07
1.2913e-07
1.30891e-07
1.31917e-07
1.32223e-07
1.31834e-07
1.30785e-07
1.29123e-07
1.26905e-07
1.24198e-07
1.21077e-07
1.17629e-07
1.13951e-07
1.10148e-07
1.06333e-07
1.0263e-07
9.91708e-08
9.60938e-08
9.35465e-08
9.16838e-08
9.06677e-08
-3.71707e-09
-9.32256e-09
-1.32076e-08
-1.54813e-08
-1.62536e-08
-1.56357e-08
-1.37402e-08
-1.06808e-08
-6.57234e-09
-1.53055e-09
4.32839e-09
1.08882e-08
1.80328e-08
2.56472e-08
3.36177e-08
4.18325e-08
5.01826e-08
5.85624e-08
6.68699e-08
7.50082e-08
8.28851e-08
9.04149e-08
9.7518e-08
1.04122e-07
1.10162e-07
1.15583e-07
1.20335e-07
1.24381e-07
1.27691e-07
1.30246e-07
1.32036e-07
1.33063e-07
1.33338e-07
1.32883e-07
1.31729e-07
1.2992e-07
1.2751e-07
1.2456e-07
1.21146e-07
1.17349e-07
1.13263e-07
1.08991e-07
1.04642e-07
1.00337e-07
9.62034e-08
9.23767e-08
8.90003e-08
8.62249e-08
8.42081e-08
8.31142e-08
-3.30428e-09
-8.09317e-09
-1.11774e-08
-1.26727e-08
-1.26955e-08
-1.13635e-08
-8.79509e-09
-5.1098e-09
-4.27755e-10
5.13052e-09
1.14445e-08
1.83939e-08
2.58595e-08
3.37236e-08
4.18703e-08
5.01865e-08
5.85624e-08
6.68921e-08
7.50743e-08
8.30132e-08
9.06185e-08
9.78069e-08
1.04502e-07
1.10635e-07
1.16145e-07
1.20981e-07
1.251e-07
1.28469e-07
1.31065e-07
1.32875e-07
1.33896e-07
1.34136e-07
1.33613e-07
1.32355e-07
1.30403e-07
1.27806e-07
1.24624e-07
1.20927e-07
1.16796e-07
1.12319e-07
1.07595e-07
1.02733e-07
9.78468e-08
9.30619e-08
8.85098e-08
8.43296e-08
8.06674e-08
7.76761e-08
7.55146e-08
7.43483e-08
-2.84108e-09
-6.72888e-09
-8.94348e-09
-9.60658e-09
-8.84057e-09
-6.7686e-09
-3.51453e-09
7.97263e-10
6.04212e-09
1.20954e-08
1.88331e-08
2.6132e-08
3.38703e-08
4.19285e-08
5.01896e-08
5.854e-08
6.68699e-08
7.50743e-08
8.30534e-08
9.07132e-08
9.79664e-08
1.04733e-07
1.1094e-07
1.16523e-07
1.21428e-07
1.25607e-07
1.29023e-07
1.31651e-07
1.33473e-07
1.34484e-07
1.34686e-07
1.34095e-07
1.32736e-07
1.30646e-07
1.27871e-07
1.24467e-07
1.20501e-07
1.1605e-07
1.112e-07
1.06046e-07
1.00692e-07
9.52509e-08
8.98424e-08
8.45943e-08
7.96417e-08
7.5126e-08
7.1195e-08
6.80024e-08
6.57077e-08
6.44753e-08
-2.33267e-09
-5.24507e-09
-6.53111e-09
-6.31777e-09
-4.73255e-09
-1.90345e-09
2.04117e-09
6.97278e-09
1.2763e-08
1.92841e-08
2.64092e-08
3.4013e-08
4.19724e-08
5.01668e-08
5.84789e-08
6.67956e-08
7.50082e-08
8.30132e-08
9.07132e-08
9.80172e-08
1.04842e-07
1.1111e-07
1.16755e-07
1.21717e-07
1.25946e-07
1.29403e-07
1.32056e-07
1.33886e-07
1.34883e-07
1.35048e-07
1.34392e-07
1.32937e-07
1.30715e-07
1.27771e-07
1.24157e-07
1.19937e-07
1.15184e-07
1.0998e-07
1.04419e-07
9.8599e-08
9.26302e-08
8.66286e-08
8.07179e-08
7.50288e-08
6.96982e-08
6.48689e-08
6.06892e-08
5.73127e-08
5.48974e-08
5.36063e-08
-1.7845e-09
-3.65771e-09
-3.96633e-09
-2.84184e-09
-4.16035e-10
3.17906e-09
7.8114e-09
1.33492e-08
1.96612e-08
2.66174e-08
3.4089e-08
4.19498e-08
5.00757e-08
5.83464e-08
6.66453e-08
7.48605e-08
8.28851e-08
9.06185e-08
9.79664e-08
1.04842e-07
1.11165e-07
1.16864e-07
1.21878e-07
1.26154e-07
1.29646e-07
1.32323e-07
1.3416e-07
1.35145e-07
1.35274e-07
1.34557e-07
1.33012e-07
1.30668e-07
1.27566e-07
1.23755e-07
1.19296e-07
1.1426e-07
1.08725e-07
1.02779e-07
9.6521e-08
9.00546e-08
8.34929e-08
7.69557e-08
7.05694e-08
6.44663e-08
5.87846e-08
5.36672e-08
4.9262e-08
4.57208e-08
4.31994e-08
4.18573e-08
-1.20219e-09
-1.98313e-09
-1.27564e-09
7.85168e-10
4.06405e-09
8.42584e-09
1.37357e-08
1.98594e-08
2.66639e-08
3.40175e-08
4.1791e-08
4.98575e-08
5.80935e-08
6.63796e-08
7.46007e-08
8.26471e-08
9.04149e-08
9.78069e-08
1.04733e-07
1.1111e-07
1.16864e-07
1.2193e-07
1.26251e-07
1.29781e-07
1.32483e-07
1.3433e-07
1.35306e-07
1.35406e-07
1.34635e-07
1.33009e-07
1.30553e-07
1.27306e-07
1.23314e-07
1.18635e-07
1.13334e-07
1.0749e-07
1.01187e-07
9.45176e-08
8.7585e-08
8.04976e-08
7.33717e-08
6.63294e-08
5.9499e-08
5.30138e-08
4.70117e-08
4.16352e-08
3.70299e-08
3.33453e-08
3.07333e-08
2.93487e-08
-5.91495e-10
-2.37995e-10
1.51412e-09
4.52696e-09
8.66275e-09
1.37841e-08
1.97542e-08
2.64375e-08
3.36998e-08
4.14092e-08
4.94362e-08
5.76549e-08
6.5943e-08
7.41828e-08
8.22619e-08
9.00737e-08
9.7518e-08
1.04502e-07
1.1094e-07
1.16755e-07
1.21878e-07
1.26251e-07
1.29824e-07
1.32558e-07
1.34422e-07
1.35398e-07
1.35477e-07
1.34662e-07
1.32966e-07
1.30413e-07
1.27036e-07
1.22879e-07
1.17998e-07
1.12455e-07
1.06325e-07
9.969e-08
9.26397e-08
8.5273e-08
7.76956e-08
7.00198e-08
6.23642e-08
5.48528e-08
4.76147e-08
4.07831e-08
3.44951e-08
2.88909e-08
2.41136e-08
2.03083e-08
1.76222e-08
1.62041e-08
4.17139e-11
1.56091e-09
4.37602e-09
8.34732e-09
1.33354e-08
1.92016e-08
2.58082e-08
3.3019e-08
4.06999e-08
4.87193e-08
5.6949e-08
6.52645e-08
7.35458e-08
8.16779e-08
8.95519e-08
9.70652e-08
1.04122e-07
1.10635e-07
1.16523e-07
1.21717e-07
1.26154e-07
1.29781e-07
1.32558e-07
1.34451e-07
1.35438e-07
1.3551e-07
1.34666e-07
1.32915e-07
1.30279e-07
1.26789e-07
1.22487e-07
1.17424e-07
1.11662e-07
1.05272e-07
9.83322e-08
9.09307e-08
8.31629e-08
7.51313e-08
6.6945e-08
5.87191e-08
5.05739e-08
4.26342e-08
3.5029e-08
2.78905e-08
2.13538e-08
1.55561e-08
1.06363e-08
6.73455e-09
3.99176e-09
2.54946e-09
6.91538e-10
3.39677e-09
7.28325e-09
1.22104e-08
1.80381e-08
2.46273e-08
3.18404e-08
3.95415e-08
4.75976e-08
5.58785e-08
6.42577e-08
7.26135e-08
8.08289e-08
8.87927e-08
9.64002e-08
1.03553e-07
1.10162e-07
1.16145e-07
1.21428e-07
1.25946e-07
1.29646e-07
1.32483e-07
1.34422e-07
1.35438e-07
1.3552e-07
1.34663e-07
1.32875e-07
1.30176e-07
1.26593e-07
1.22167e-07
1.16946e-07
1.10989e-07
1.04365e-07
9.71487e-08
8.94267e-08
8.12912e-08
7.28418e-08
6.41846e-08
5.54315e-08
4.66993e-08
3.81092e-08
2.97862e-08
2.18582e-08
1.44554e-08
7.70982e-09
1.75464e-09
-3.27644e-09
-7.24955e-09
-1.00311e-08
-1.1488e-08
1.35208e-09
5.25288e-09
1.02094e-08
1.60809e-08
2.27279e-08
3.00117e-08
3.77957e-08
4.59455e-08
5.43298e-08
6.28208e-08
7.12951e-08
7.96341e-08
8.77251e-08
9.54613e-08
1.02743e-07
1.09478e-07
1.15583e-07
1.20981e-07
1.25607e-07
1.29403e-07
1.32323e-07
1.3433e-07
1.35398e-07
1.3551e-07
1.34663e-07
1.32861e-07
1.3012e-07
1.26468e-07
1.21942e-07
1.16587e-07
1.10462e-07
1.03631e-07
9.61683e-08
8.81575e-08
7.96882e-08
7.08576e-08
6.1769e-08
5.25314e-08
4.32586e-08
3.40686e-08
2.50826e-08
1.64249e-08
8.2213e-09
5.99234e-10
-6.31336e-09
-1.23885e-08
-1.74986e-08
-2.15172e-08
-2.4319e-08
-2.57808e-08
2.01748e-09
7.11281e-09
1.31284e-08
1.99247e-08
2.73633e-08
3.53071e-08
4.36214e-08
5.21741e-08
6.08368e-08
6.9485e-08
7.79989e-08
8.62644e-08
9.41735e-08
1.01625e-07
1.08525e-07
1.14787e-07
1.20335e-07
1.251e-07
1.29023e-07
1.32056e-07
1.3416e-07
1.35306e-07
1.35477e-07
1.34666e-07
1.32875e-07
1.3012e-07
1.26425e-07
1.21825e-07
1.16365e-07
1.10099e-07
1.03091e-07
9.54136e-08
8.71466e-08
7.83781e-08
6.9203e-08
5.97224e-08
5.00426e-08
4.02749e-08
3.05342e-08
2.09388e-08
1.16095e-08
2.66857e-09
-5.76082e-09
-1.35552e-08
-2.05915e-08
-2.6748e-08
-3.19042e-08
-3.5942e-08
-3.87456e-08
-4.02024e-08
2.68201e-09
8.96057e-09
1.60154e-08
2.37088e-08
3.19046e-08
4.04683e-08
4.92678e-08
5.81746e-08
6.70636e-08
7.58146e-08
8.43126e-08
9.24485e-08
1.0012e-07
1.07232e-07
1.13697e-07
1.19437e-07
1.24381e-07
1.28469e-07
1.31651e-07
1.33886e-07
1.35145e-07
1.35406e-07
1.34662e-07
1.32915e-07
1.30176e-07
1.26468e-07
1.21825e-07
1.1629e-07
1.09915e-07
1.02762e-07
9.49014e-08
8.6412e-08
7.73797e-08
6.78974e-08
5.8064e-08
4.79838e-08
3.77658e-08
2.75224e-08
1.73695e-08
7.42474e-09
-2.1927e-09
-1.13631e-08
-1.99668e-08
-2.78851e-08
-3.50011e-08
-4.11996e-08
-4.63687e-08
-5.03994e-08
-5.31863e-08
-5.46284e-08
3.34008e-09
1.07807e-08
1.88461e-08
2.74018e-08
3.63143e-08
4.54527e-08
5.46887e-08
6.38978e-08
7.29596e-08
8.17587e-08
9.01857e-08
9.81375e-08
1.05518e-07
1.12239e-07
1.18221e-07
1.23392e-07
1.27691e-07
1.31065e-07
1.33473e-07
1.34883e-07
1.35274e-07
1.34635e-07
1.32966e-07
1.30279e-07
1.26593e-07
1.21942e-07
1.16365e-07
1.09915e-07
1.02651e-07
9.46425e-08
8.59662e-08
7.67066e-08
6.69548e-08
5.68082e-08
4.63691e-08
3.57446e-08
2.50454e-08
1.43848e-08
3.87833e-09
-6.35748e-09
-1.62058e-08
-2.55501e-08
-3.42756e-08
-4.22689e-08
-4.94198e-08
-5.56213e-08
-6.07701e-08
-6.47675e-08
-6.75196e-08
-6.89374e-08
3.98633e-09
1.25584e-08
2.1598e-08
3.0974e-08
4.05574e-08
5.02212e-08
5.98418e-08
6.92996e-08
7.84796e-08
8.72724e-08
9.55746e-08
1.0329e-07
1.10329e-07
1.16612e-07
1.22066e-07
1.26628e-07
1.30246e-07
1.32875e-07
1.34484e-07
1.35048e-07
1.34557e-07
1.33009e-07
1.30413e-07
1.26789e-07
1.22167e-07
1.16587e-07
1.10099e-07
1.02762e-07
9.46425e-08
8.58168e-08
7.63679e-08
6.63854e-08
5.59654e-08
4.52088e-08
3.42211e-08
2.31114e-08
1.19914e-08
9.74686e-10
-9.82431e-09
-2.0291e-08
-3.03115e-08
-3.97737e-08
-4.85678e-08
-5.6587e-08
-6.37286e-08
-6.9894e-08
-7.499e-08
-7.89287e-08
-8.16281e-08
-8.30124e-08
4.61565e-09
1.42799e-08
2.42495e-08
3.43982e-08
4.46016e-08
5.47379e-08
6.46889e-08
7.43406e-08
8.35844e-08
9.23171e-08
1.00443e-07
1.07871e-07
1.14523e-07
1.20324e-07
1.25211e-07
1.2913e-07
1.32036e-07
1.33896e-07
1.34686e-07
1.34392e-07
1.33012e-07
1.30553e-07
1.27036e-07
1.22487e-07
1.16946e-07
1.10462e-07
1.03091e-07
9.49014e-08
8.59662e-08
7.63679e-08
6.6195e-08
5.55424e-08
4.45099e-08
3.3202e-08
2.17264e-08
1.01937e-08
-1.28411e-09
-1.2594e-08
-2.3623e-08
-3.42594e-08
-4.43931e-08
-5.39169e-08
-6.27268e-08
-7.07233e-08
-7.78119e-08
-8.39034e-08
-8.89149e-08
-9.27702e-08
-9.53998e-08
-9.67419e-08
5.22324e-09
1.59321e-08
2.67812e-08
3.76495e-08
4.84181e-08
5.89712e-08
6.91967e-08
7.89871e-08
8.82406e-08
9.68612e-08
1.0476e-07
1.11857e-07
1.18077e-07
1.23358e-07
1.27645e-07
1.30891e-07
1.33063e-07
1.34136e-07
1.34095e-07
1.32937e-07
1.30668e-07
1.27306e-07
1.22879e-07
1.17424e-07
1.10989e-07
1.03631e-07
9.54136e-08
8.6412e-08
7.67066e-08
6.63854e-08
5.55424e-08
4.42765e-08
3.26914e-08
2.08941e-08
8.99407e-09
-2.89739e-09
-1.46684e-08
-2.62072e-08
-3.74032e-08
-4.81481e-08
-5.83361e-08
-6.78657e-08
-7.66396e-08
-8.45661e-08
-9.15594e-08
-9.75403e-08
-1.02437e-07
-1.06185e-07
-1.08729e-07
-1.10021e-07
5.80467e-09
1.75034e-08
2.91753e-08
4.07054e-08
5.19813e-08
6.28936e-08
7.33369e-08
8.32111e-08
9.24216e-08
1.0088e-07
1.08507e-07
1.15228e-07
1.2098e-07
1.25708e-07
1.29365e-07
1.31917e-07
1.33338e-07
1.33613e-07
1.32736e-07
1.30715e-07
1.27566e-07
1.23314e-07
1.17998e-07
1.11662e-07
1.04365e-07
9.61683e-08
8.71466e-08
7.73797e-08
6.69548e-08
5.59654e-08
4.45099e-08
3.26914e-08
2.06164e-08
8.39397e-09
-3.86521e-09
-1.60497e-08
-2.80486e-08
-3.97519e-08
-5.10522e-08
-6.18448e-08
-7.20296e-08
-8.15107e-08
-9.01984e-08
-9.80093e-08
-1.04867e-07
-1.10702e-07
-1.15456e-07
-1.19075e-07
-1.21518e-07
-1.22752e-07
6.35594e-09
1.89832e-08
3.14162e-08
4.35469e-08
5.52697e-08
6.64823e-08
7.70869e-08
8.69909e-08
9.61078e-08
1.04358e-07
1.11669e-07
1.17977e-07
1.23228e-07
1.27375e-07
1.30382e-07
1.32223e-07
1.32883e-07
1.32355e-07
1.30646e-07
1.27771e-07
1.23755e-07
1.18635e-07
1.12455e-07
1.05272e-07
9.71487e-08
8.81575e-08
7.83781e-08
6.78974e-08
5.68082e-08
4.52088e-08
3.3202e-08
2.08941e-08
8.39397e-09
-4.18778e-09
-1.67399e-08
-2.91516e-08
-4.13131e-08
-5.31173e-08
-6.446e-08
-7.52415e-08
-8.5367e-08
-9.47476e-08
-1.03301e-07
-1.10953e-07
-1.17637e-07
-1.23295e-07
-1.27879e-07
-1.31349e-07
-1.33677e-07
-1.34845e-07
6.87347e-09
2.03623e-08
3.34907e-08
4.61578e-08
5.82656e-08
6.97194e-08
8.04295e-08
9.03112e-08
9.92867e-08
1.07285e-07
1.14242e-07
1.20105e-07
1.24827e-07
1.28371e-07
1.30712e-07
1.31834e-07
1.31729e-07
1.30403e-07
1.27871e-07
1.24157e-07
1.19296e-07
1.13334e-07
1.06325e-07
9.83322e-08
8.94267e-08
7.96882e-08
6.9203e-08
5.8064e-08
4.63691e-08
3.42211e-08
2.17264e-08
8.99407e-09
-3.86521e-09
-1.67399e-08
-2.95189e-08
-4.20923e-08
-5.43525e-08
-6.61954e-08
-7.75211e-08
-8.82347e-08
-9.82478e-08
-1.07479e-07
-1.15853e-07
-1.23306e-07
-1.29782e-07
-1.35232e-07
-1.39622e-07
-1.42925e-07
-1.45127e-07
-1.46224e-07
7.3542e-09
2.16332e-08
3.5388e-08
4.85256e-08
6.09559e-08
7.25925e-08
8.33537e-08
9.31638e-08
1.01953e-07
1.09661e-07
1.16232e-07
1.21621e-07
1.25792e-07
1.2872e-07
1.30386e-07
1.30785e-07
1.2992e-07
1.27806e-07
1.24467e-07
1.19937e-07
1.1426e-07
1.0749e-07
9.969e-08
9.09307e-08
8.12912e-08
7.08576e-08
5.97224e-08
4.79838e-08
3.57446e-08
2.31114e-08
1.01937e-08
-2.89739e-09
-1.60497e-08
-2.91516e-08
-4.20923e-08
-5.47636e-08
-6.70607e-08
-7.88828e-08
-9.01346e-08
-1.00727e-07
-1.10578e-07
-1.19613e-07
-1.27768e-07
-1.34986e-07
-1.41221e-07
-1.46437e-07
-1.50612e-07
-1.53732e-07
-1.55797e-07
-1.56817e-07
7.79563e-09
2.27896e-08
3.70998e-08
5.06412e-08
6.3332e-08
7.50943e-08
8.58551e-08
9.55475e-08
1.04111e-07
1.11493e-07
1.1765e-07
1.22544e-07
1.26151e-07
1.28452e-07
1.29442e-07
1.29123e-07
1.2751e-07
1.24624e-07
1.20501e-07
1.15184e-07
1.08725e-07
1.01187e-07
9.26397e-08
8.31629e-08
7.28418e-08
6.1769e-08
5.00426e-08
3.77658e-08
2.50454e-08
1.19914e-08
-1.28411e-09
-1.46684e-08
-2.80486e-08
-4.13131e-08
-5.43525e-08
-6.70607e-08
-7.93356e-08
-9.10809e-08
-1.02206e-07
-1.12628e-07
-1.22271e-07
-1.3107e-07
-1.38968e-07
-1.45918e-07
-1.51885e-07
-1.56845e-07
-1.60787e-07
-1.63711e-07
-1.6563e-07
-1.6657e-07
8.19581e-09
2.38274e-08
3.86208e-08
5.24994e-08
6.53901e-08
7.72235e-08
8.79355e-08
9.74683e-08
1.05771e-07
1.12799e-07
1.18519e-07
1.22904e-07
1.25938e-07
1.27612e-07
1.2793e-07
1.26905e-07
1.2456e-07
1.20927e-07
1.1605e-07
1.0998e-07
1.02779e-07
9.45176e-08
8.5273e-08
7.51313e-08
6.41846e-08
5.25314e-08
4.02749e-08
2.75224e-08
1.43848e-08
9.74686e-10
-1.2594e-08
-2.62072e-08
-3.97519e-08
-5.31173e-08
-6.61954e-08
-7.88828e-08
-9.10809e-08
-1.02698e-07
-1.13648e-07
-1.23855e-07
-1.3325e-07
-1.41776e-07
-1.49385e-07
-1.5604e-07
-1.61716e-07
-1.66402e-07
-1.70096e-07
-1.72813e-07
-1.7458e-07
-1.75436e-07
8.55341e-09
2.4744e-08
3.99485e-08
5.40992e-08
6.71313e-08
7.89846e-08
8.96037e-08
9.894e-08
1.06952e-07
1.13604e-07
1.18872e-07
1.2274e-07
1.25198e-07
1.26251e-07
1.2591e-07
1.24198e-07
1.21146e-07
1.16796e-07
1.112e-07
1.04419e-07
9.6521e-08
8.7585e-08
7.76956e-08
6.6945e-08
5.54315e-08
4.32586e-08
3.05342e-08
1.73695e-08
3.87833e-09
-9.82431e-09
-2.3623e-08
-3.74032e-08
-5.10522e-08
-6.446e-08
-7.75211e-08
-9.01346e-08
-1.02206e-07
-1.13648e-07
-1.24381e-07
-1.34334e-07
-1.43447e-07
-1.5167e-07
-1.58964e-07
-1.65301e-07
-1.70669e-07
-1.75065e-07
-1.78502e-07
-1.81005e-07
-1.82615e-07
-1.83385e-07
8.86776e-09
2.55386e-08
4.10835e-08
5.54433e-08
6.85621e-08
8.03882e-08
9.08754e-08
9.99839e-08
1.07681e-07
1.13942e-07
1.1875e-07
1.22098e-07
1.23989e-07
1.24433e-07
1.23452e-07
1.21077e-07
1.17349e-07
1.12319e-07
1.06046e-07
9.8599e-08
9.00546e-08
8.04976e-08
7.00198e-08
5.87191e-08
4.66993e-08
3.40686e-08
2.09388e-08
7.42474e-09
-6.35748e-09
-2.0291e-08
-3.42594e-08
-4.81481e-08
-6.18448e-08
-7.52415e-08
-8.82347e-08
-1.00727e-07
-1.12628e-07
-1.23855e-07
-1.34334e-07
-1.44001e-07
-1.52804e-07
-1.607e-07
-1.67658e-07
-1.73663e-07
-1.78709e-07
-1.82806e-07
-1.85979e-07
-1.88264e-07
-1.89715e-07
-1.90399e-07
9.13885e-09
2.62126e-08
4.20296e-08
5.65392e-08
6.9694e-08
8.14511e-08
9.17732e-08
1.00629e-07
1.07995e-07
1.13855e-07
1.18203e-07
1.21038e-07
1.22374e-07
1.22229e-07
1.20634e-07
1.17629e-07
1.13263e-07
1.07595e-07
1.00692e-07
9.26302e-08
8.34929e-08
7.33717e-08
6.23642e-08
5.05739e-08
3.81092e-08
2.50826e-08
1.16095e-08
-2.1927e-09
-1.62058e-08
-3.03115e-08
-4.43931e-08
-5.83361e-08
-7.20296e-08
-8.5367e-08
-9.82478e-08
-1.10578e-07
-1.22271e-07
-1.3325e-07
-1.43447e-07
-1.52804e-07
-1.61275e-07
-1.68827e-07
-1.75437e-07
-1.81099e-07
-1.85816e-07
-1.89611e-07
-1.92517e-07
-1.94584e-07
-1.95876e-07
-1.96475e-07
9.36738e-09
2.67692e-08
4.27936e-08
5.73983e-08
7.05441e-08
8.21966e-08
9.23269e-08
1.00913e-07
1.07938e-07
1.13397e-07
1.1729e-07
1.19627e-07
1.20428e-07
1.19722e-07
1.17547e-07
1.13951e-07
1.08991e-07
1.02733e-07
9.52509e-08
8.66286e-08
7.69557e-08
6.63294e-08
5.48528e-08
4.26342e-08
2.97862e-08
1.64249e-08
2.66857e-09
-1.13631e-08
-2.55501e-08
-3.97737e-08
-5.39169e-08
-6.78657e-08
-8.15107e-08
-9.47476e-08
-1.07479e-07
-1.19613e-07
-1.3107e-07
-1.41776e-07
-1.5167e-07
-1.607e-07
-1.68827e-07
-1.76025e-07
-1.82281e-07
-1.87597e-07
-1.91986e-07
-1.95479e-07
-1.98121e-07
-1.99972e-07
-2.0111e-07
-2.01624e-07
9.55475e-09
2.72138e-08
4.3386e-08
5.80366e-08
7.11349e-08
8.26542e-08
9.25738e-08
1.00879e-07
1.07564e-07
1.12628e-07
1.16081e-07
1.17942e-07
1.18238e-07
1.17005e-07
1.1429e-07
1.10148e-07
1.04642e-07
9.78468e-08
8.98424e-08
8.07179e-08
7.05694e-08
5.9499e-08
4.76147e-08
3.5029e-08
2.18582e-08
8.2213e-09
-5.76082e-09
-1.99668e-08
-3.42756e-08
-4.85678e-08
-6.27268e-08
-7.66396e-08
-9.01984e-08
-1.03301e-07
-1.15853e-07
-1.27768e-07
-1.38968e-07
-1.49385e-07
-1.58964e-07
-1.67658e-07
-1.75437e-07
-1.82281e-07
-1.88185e-07
-1.93159e-07
-1.97225e-07
-2.00424e-07
-2.02809e-07
-2.04453e-07
-2.0544e-07
-2.05875e-07
9.70313e-09
2.7554e-08
4.38202e-08
5.84749e-08
7.14944e-08
8.286e-08
9.25582e-08
1.00582e-07
1.06933e-07
1.11618e-07
1.14655e-07
1.1607e-07
1.15896e-07
1.14179e-07
1.10971e-07
1.06333e-07
1.00337e-07
9.30619e-08
8.45943e-08
7.50288e-08
6.44663e-08
5.30138e-08
4.07831e-08
2.78905e-08
1.44554e-08
5.99234e-10
-1.35552e-08
-2.78851e-08
-4.22689e-08
-5.6587e-08
-7.07233e-08
-8.45661e-08
-9.80093e-08
-1.10953e-07
-1.23306e-07
-1.34986e-07
-1.45918e-07
-1.5604e-07
-1.65301e-07
-1.73663e-07
-1.81099e-07
-1.87597e-07
-1.93159e-07
-1.97802e-07
-2.01559e-07
-2.04476e-07
-2.06618e-07
-2.08064e-07
-2.0891e-07
-2.09269e-07
9.81541e-09
2.77991e-08
4.41134e-08
5.87381e-08
7.16565e-08
8.28565e-08
9.23317e-08
1.00082e-07
1.06115e-07
1.10446e-07
1.13099e-07
1.14106e-07
1.13508e-07
1.11355e-07
1.07706e-07
1.0263e-07
9.62034e-08
8.85098e-08
7.96417e-08
6.96982e-08
5.87846e-08
4.70117e-08
3.44951e-08
2.13538e-08
7.70982e-09
-6.31336e-09
-2.05915e-08
-3.50011e-08
-4.94198e-08
-6.37286e-08
-7.78119e-08
-9.15594e-08
-1.04867e-07
-1.17637e-07
-1.29782e-07
-1.41221e-07
-1.51885e-07
-1.61716e-07
-1.70669e-07
-1.78709e-07
-1.85816e-07
-1.91986e-07
-1.97225e-07
-2.01559e-07
-2.05026e-07
-2.07681e-07
-2.09597e-07
-2.10861e-07
-2.11577e-07
-2.11867e-07
9.89526e-09
2.79612e-08
4.42862e-08
5.88561e-08
7.16603e-08
8.26928e-08
9.19533e-08
9.94478e-08
1.0519e-07
1.09201e-07
1.1151e-07
1.12155e-07
1.11184e-07
1.08652e-07
1.04623e-07
9.91708e-08
9.23767e-08
8.43296e-08
7.5126e-08
6.48689e-08
5.36672e-08
4.16352e-08
2.88909e-08
1.55561e-08
1.75464e-09
-1.23885e-08
-2.6748e-08
-4.11996e-08
-5.56213e-08
-6.9894e-08
-8.39034e-08
-9.75403e-08
-1.10702e-07
-1.23295e-07
-1.35232e-07
-1.46437e-07
-1.56845e-07
-1.66402e-07
-1.75065e-07
-1.82806e-07
-1.89611e-07
-1.95479e-07
-2.00424e-07
-2.04476e-07
-2.07681e-07
-2.10102e-07
-2.11815e-07
-2.12916e-07
-2.13516e-07
-2.13744e-07
9.94714e-09
2.80541e-08
4.43624e-08
5.88632e-08
7.15509e-08
8.24247e-08
9.14893e-08
9.87559e-08
1.04243e-07
1.07977e-07
1.09992e-07
1.10332e-07
1.09047e-07
1.06198e-07
1.01855e-07
9.60938e-08
8.90003e-08
8.06674e-08
7.1195e-08
6.06892e-08
4.9262e-08
3.70299e-08
2.41136e-08
1.06363e-08
-3.27644e-09
-1.74986e-08
-3.19042e-08
-4.63687e-08
-6.07701e-08
-7.499e-08
-8.89149e-08
-1.02437e-07
-1.15456e-07
-1.27879e-07
-1.39622e-07
-1.50612e-07
-1.60787e-07
-1.70096e-07
-1.78502e-07
-1.85979e-07
-1.92517e-07
-1.98121e-07
-2.02809e-07
-2.06618e-07
-2.09597e-07
-2.11815e-07
-2.13354e-07
-2.14316e-07
-2.14818e-07
-2.14993e-07
9.97624e-09
2.80939e-08
4.43696e-08
5.87984e-08
7.13789e-08
8.21141e-08
9.1013e-08
9.80908e-08
1.0337e-07
1.06881e-07
1.08661e-07
1.08758e-07
1.07227e-07
1.04132e-07
9.9545e-08
9.35465e-08
8.62249e-08
7.76761e-08
6.80024e-08
5.73127e-08
4.57208e-08
3.33453e-08
2.03083e-08
6.73455e-09
-7.24955e-09
-2.15172e-08
-3.5942e-08
-5.03994e-08
-6.47675e-08
-7.89287e-08
-9.27702e-08
-1.06185e-07
-1.19075e-07
-1.31349e-07