/*--------------------------------*- C++ -*----------------------------------*\
| =========                 |                                                 |
| \\      /  F ield         | OpenFOAM: The Open Source CFD Toolbox           |
|  \\    /   O peration     | Version:  2112                                  |
|   \\  /    A nd           | Website:  www.openfoam.com                      |
|    \\/     M anipulation  |                                                 |
\*---------------------------------------------------------------------------*/
FoamFile
{
    version     2.0;
    format      ascii;
    arch        "LSB;label=64;scalar=64";
    class       volScalarField;
    location    "0.1";
    object      T;
}
// * * * * * * * * * * * * * * * * * * * * * * * * * * * * * * * * * * * * * //

dimensions      [0 0 0 1 0 0 0];

internalField   nonuniform List<scalar> 
2500
(
-0.000564185
-0.00486272
-0.00822221
-0.0113039
-0.01401
-0.0163589
-0.0183943
-0.0201542
-0.0216639
-0.0229376
-0.0239815
-0.0247971
-0.0253838
-0.02574
-0.0258648
-0.0257585
-0.0254226
-0.0248606
-0.0240776
-0.0230808
-0.021879
-0.020483
-0.0189051
-0.0171595
-0.0152615
-0.013228
-0.0110771
-0.00882794
-0.00650038
-0.00411513
-0.00169336
0.000743453
0.00317366
0.0055757
0.00792825
0.0102104
0.012402
0.0144834
0.0164364
0.0182434
0.0198885
0.021357
0.022636
0.0237141
0.0245817
0.0252311
0.0256565
0.0258542
0.0258225
0.0257665
-0.00486272
-0.0198872
-0.0331209
-0.0466214
-0.0598437
-0.0724524
-0.0842585
-0.095154
-0.105069
-0.113949
-0.121746
-0.128414
-0.133911
-0.138198
-0.141247
-0.143035
-0.143548
-0.142784
-0.140752
-0.137469
-0.132966
-0.127282
-0.120468
-0.112584
-0.103702
-0.0938984
-0.0832618
-0.0718861
-0.0598723
-0.0473271
-0.0343618
-0.0210916
-0.00763408
0.00589118
0.0193641
0.0326652
0.0456764
0.0582821
0.0703705
0.0818343
0.0925717
0.102487
0.111494
0.11951
0.126466
0.132299
0.136958
0.140401
0.142598
0.144035
-0.00822221
-0.0331209
-0.0539856
-0.0752326
-0.0963482
-0.116829
-0.136278
-0.154411
-0.171029
-0.185985
-0.199169
-0.210491
-0.219876
-0.227261
-0.232596
-0.235844
-0.236985
-0.236013
-0.232941
-0.227798
-0.220631
-0.211504
-0.200499
-0.187714
-0.173263
-0.157273
-0.139888
-0.12126
-0.101557
-0.0809518
-0.0596282
-0.0377753
-0.0155872
0.00673929
0.029006
0.0510152
0.0725716
0.0934838
0.113566
0.132641
0.150538
0.167099
0.182177
0.195637
0.207362
0.217245
0.225201
0.231157
0.235062
0.237723
-0.0113039
-0.0466214
-0.0752326
-0.103914
-0.132389
-0.160191
-0.186832
-0.21188
-0.23499
-0.255895
-0.274393
-0.290327
-0.303577
-0.314047
-0.321666
-0.326384
-0.328174
-0.327028
-0.322966
-0.316027
-0.306278
-0.293806
-0.278723
-0.261165
-0.241288
-0.219269
-0.195304
-0.169604
-0.142399
-0.11393
-0.0844497
-0.0542198
-0.0235085
0.00741133
0.0382654
0.0687799
0.0986838
0.127712
0.155606
0.18212
0.207016
0.230076
0.251093
0.269881
0.286274
0.300126
0.311314
0.319739
0.325325
0.32921
-0.01401
-0.0598437
-0.0963482
-0.132389
-0.167886
-0.202517
-0.235825
-0.267319
-0.296548
-0.323127
-0.346747
-0.367169
-0.384204
-0.397715
-0.4076
-0.413792
-0.416253
-0.414978
-0.409989
-0.401341
-0.389117
-0.373429
-0.354421
-0.332262
-0.307152
-0.279314
-0.248996
-0.216467
-0.182016
-0.14595
-0.108587
-0.0702612
-0.0313114
0.00791633
0.0470738
0.0858135
0.123792
0.160671
0.196124
0.229836
0.261508
0.29086
0.317629
0.341579
0.362497
0.380198
0.394524
0.405348
0.412574
0.417651
-0.0163589
-0.0724524
-0.116829
-0.160191
-0.202517
-0.243608
-0.283099
-0.320526
-0.355397
-0.387249
-0.415681
-0.44036
-0.461026
-0.47748
-0.489579
-0.497231
-0.500384
-0.499029
-0.493193
-0.482942
-0.468378
-0.449636
-0.426891
-0.400347
-0.370244
-0.336851
-0.300465
-0.261411
-0.220035
-0.176706
-0.131807
-0.0857385
-0.0389088
0.00826648
0.0553684
0.101979
0.147684
0.192079
0.234768
0.275374
0.313536
0.348914
0.381196
0.410094
0.435352
0.456746
0.474086
0.487217
0.496025
0.502243
-0.0183943
-0.0842585
-0.136278
-0.186832
-0.235825
-0.283099
-0.328374
-0.371251
-0.411259
-0.44791
-0.480743
-0.509353
-0.533405
-0.552634
-0.566849
-0.575918
-0.57977
-0.578384
-0.57179
-0.560061
-0.543316
-0.521715
-0.495458
-0.464787
-0.429978
-0.391344
-0.34923
-0.304014
-0.256096
-0.205903
-0.153882
-0.100494
-0.0462139
0.00847684
0.0630925
0.117148
0.170164
0.22167
0.271208
0.318339
0.362644
0.403731
0.441233
0.47482
0.504192
0.529089
0.549289
0.564614
0.574927
0.582217
-0.0201542
-0.095154
-0.154411
-0.21188
-0.267319
-0.320526
-0.371251
-0.419156
-0.463823
-0.504781
-0.541553
-0.573692
-0.600805
-0.62257
-0.63874
-0.649142
-0.653673
-0.652296
-0.645034
-0.631966
-0.613222
-0.588983
-0.559477
-0.524974
-0.485791
-0.44228
-0.394832
-0.343872
-0.289854
-0.23326
-0.174594
-0.114376
-0.0531415
0.00856505
0.070196
0.131204
0.191048
0.249196
0.305132
0.35836
0.408408
0.45483
0.497215
0.535187
0.568408
0.596584
0.619465
0.636848
0.648577
0.656853
-0.0216639
-0.105069
-0.171029
-0.23499
-0.296548
-0.355397
-0.411259
-0.463823
-0.512716
-0.557513
-0.597753
-0.632982
-0.662778
-0.686776
-0.704683
-0.716282
-0.721438
-0.720088
-0.712242
-0.697977
-0.677432
-0.650802
-0.618337
-0.580338
-0.537154
-0.489175
-0.436835
-0.380604
-0.320985
-0.25851
-0.193735
-0.127238
-0.0596085
0.0085511
0.0766358
0.144041
0.210168
0.27443
0.336256
0.395098
0.450432
0.501769
0.548652
0.590665
0.627436
0.658637
0.683992
0.703276
0.716318
0.725482
-0.0229376
-0.113949
-0.185985
-0.255895
-0.323127
-0.387249
-0.44791
-0.504781
-0.557513
-0.605719
-0.648979
-0.686858
-0.718933
-0.744822
-0.764199
-0.776816
-0.782502
-0.781167
-0.772805
-0.757483
-0.73534
-0.706582
-0.671476
-0.630347
-0.583573
-0.531578
-0.474835
-0.413854
-0.349183
-0.2814
-0.211111
-0.138941
-0.0655344
0.00845722
0.0823758
0.155565
0.227374
0.297165
0.364319
0.42824
0.488359
0.544144
0.5951
0.640773
0.680759
0.714702
0.742302
0.763312
0.777548
0.787489
-0.0239815
-0.121746
-0.199169
-0.274393
-0.346747
-0.415681
-0.480743
-0.541553
-0.597753
-0.648979
-0.694848
-0.734961
-0.768917
-0.796339
-0.816894
-0.830312
-0.836398
-0.835038
-0.826205
-0.809952
-0.786414
-0.7558
-0.718388
-0.67452
-0.624598
-0.569076
-0.508459
-0.443294
-0.374167
-0.3017
-0.226539
-0.149357
-0.070842
0.00830777
0.0873877
0.165695
0.242533
0.317219
0.389091
0.45751
0.521868
0.581594
0.636159
0.685076
0.727913
0.764289
0.793882
0.816427
0.831726
0.842323
-0.0247971
-0.128414
-0.210491
-0.290327
-0.367169
-0.44036
-0.509353
-0.573692
-0.632982
-0.686858
-0.734961
-0.776927
-0.812392
-0.841002
-0.862435
-0.876421
-0.882752
-0.881299
-0.872016
-0.854943
-0.830205
-0.798007
-0.758632
-0.712434
-0.659831
-0.601301
-0.537373
-0.468628
-0.395684
-0.319197
-0.239855
-0.158365
-0.0754577
0.00812923
0.0916509
0.174364
0.255533
0.334436
0.410372
0.482667
0.550679
0.613803
0.671479
0.723196
0.768493
0.80697
0.838283
0.862157
0.878377
0.889499
-0.0253838
-0.133911
-0.219876
-0.303577
-0.384204
-0.461026
-0.533405
-0.600805
-0.662778
-0.718933
-0.768917
-0.812392
-0.849028
-0.878508
-0.900537
-0.914859
-0.921272
-0.919642
-0.909912
-0.892111
-0.866353
-0.832837
-0.791845
-0.743734
-0.688932
-0.627933
-0.561287
-0.489596
-0.413506
-0.333704
-0.250907
-0.165856
-0.0793124
0.00795011
0.0951533
0.18152
0.266282
0.348684
0.427995
0.503508
0.574555
0.640502
0.700765
0.754808
0.802152
0.842376
0.875123
0.900103
0.917094
0.928602
-0.02574
-0.138198
-0.227261
-0.314047
-0.397715
-0.47748
-0.552634
-0.62257
-0.686776
-0.744822
-0.796339
-0.841002
-0.878508
-0.908576
-0.930947
-0.945393
-0.951732
-0.949837
-0.939653
-0.921204
-0.894594
-0.860017
-0.817747
-0.768141
-0.71163
-0.648715
-0.579959
-0.50598
-0.427445
-0.345059
-0.259565
-0.17173
-0.0823415
0.00780069
0.0978911
0.187126
0.274709
0.359862
0.441825
0.519871
0.593305
0.661474
0.723774
0.77965
0.828607
0.870209
0.904088
0.929942
0.947542
0.959293
-0.0258648
-0.141247
-0.232596
-0.321666
-0.4076
-0.489579
-0.566849
-0.63874
-0.704683
-0.764199
-0.816894
-0.862435
-0.900537
-0.930947
-0.953442
-0.967831
-0.97396
-0.971726
-0.961083
-0.942059
-0.914756
-0.879362
-0.836145
-0.785457
-0.727725
-0.663453
-0.593206
-0.517611
-0.437345
-0.353129
-0.265721
-0.175905
-0.0844872
0.0077125
0.0998691
0.191159
0.280767
0.367895
0.451766
0.531633
0.606785
0.676555
0.740323
0.797521
0.847641
0.890238
0.924934
0.951421
0.969463
0.981308
-0.0257585
-0.143035
-0.235844
-0.326384
-0.413792
-0.497231
-0.575918
-0.649142
-0.716282
-0.776816
-0.830312
-0.876421
-0.914859
-0.945393
-0.967831
-0.982017
-0.987834
-0.985206
-0.974112
-0.954591
-0.926751
-0.890778
-0.846936
-0.795569
-0.737099
-0.672023
-0.600904
-0.524369
-0.443098
-0.357816
-0.269289
-0.178311
-0.0856988
0.00771728
0.1011
0.193613
0.28443
0.372739
0.457753
0.538714
0.6149
0.685634
0.750286
0.808281
0.859104
0.902303
0.937495
0.964365
0.982677
0.994466
-0.0254226
-0.143548
-0.236985
-0.328174
-0.416253
-0.500384
-0.57977
-0.653673
-0.721438
-0.782502
-0.836398
-0.882752
-0.921272
-0.951732
-0.97396
-0.987834
-0.993269
-0.990226
-0.978712
-0.958785
-0.930569
-0.894254
-0.850101
-0.798449
-0.739712
-0.674376
-0.602997
-0.526193
-0.44464
-0.359059
-0.270214
-0.178901
-0.085936
0.00784554
0.101603
0.194496
0.285694
0.37438
0.459762
0.541078
0.617602
0.688653
0.753598
0.811859
0.862917
0.906318
0.941676
0.968678
0.987082
0.998663
-0.0248606
-0.142784
-0.236013
-0.327028
-0.414978
-0.499029
-0.578384
-0.652296
-0.720088
-0.781167
-0.835038
-0.881299
-0.919642
-0.949837
-0.971726
-0.985206
-0.990226
-0.986779
-0.974903
-0.954685
-0.926267
-0.889848
-0.845696
-0.794145
-0.7356
-0.670535
-0.599495
-0.523082
-0.44196
-0.356839
-0.268472
-0.177645
-0.0851706
0.00812452
0.101404
0.193831
0.284578
0.372831
0.457802
0.538731
0.614894
0.685612
0.750254
0.808245
0.859067
0.902267
0.937462
0.964339
0.982657
0.993879
-0.0240776
-0.140752
-0.232941
-0.322966
-0.409989
-0.493193
-0.57179
-0.645034
-0.712242
-0.772805
-0.826205
-0.872016
-0.909912
-0.939653
-0.961083
-0.974112
-0.978712
-0.974903
-0.962756
-0.942386
-0.913957
-0.877687
-0.833849
-0.782778
-0.724873
-0.660596
-0.590475
-0.515095
-0.4351
-0.35118
-0.264072
-0.174543
-0.0833897
0.00857583
0.100531
0.191651
0.281121
0.368137
0.451921
0.531723
0.606828
0.676565
0.740311
0.797496
0.847612
0.89021
0.924912
0.951407
0.969461
0.980176
-0.0230808
-0.137469
-0.227798
-0.316027
-0.401341
-0.482942
-0.560061
-0.631966
-0.697977
-0.757483
-0.809952
-0.854943
-0.892111
-0.921204
-0.942059
-0.954591
-0.958785
-0.954685
-0.942386
-0.92203
-0.893806
-0.857949
-0.814745
-0.764533
-0.707707
-0.644719
-0.576077
-0.502349
-0.424152
-0.342153
-0.257061
-0.169619
-0.0805982
0.00921288
0.0990138
0.188002
0.275381
0.360368
0.4422
0.520145
0.593503
0.661619
0.723882
0.779735
0.82868
0.870278
0.90416
0.930021
0.947632
0.957696
-0.021879
-0.132966
-0.220631
-0.306278
-0.389117
-0.468378
-0.543316
-0.613222
-0.677432
-0.73534
-0.786414
-0.830205
-0.866353
-0.894594
-0.914756
-0.926751
-0.930569
-0.926267
-0.913957
-0.893806
-0.866022
-0.830861
-0.788622
-0.739649
-0.684335
-0.623121
-0.556501
-0.485018
-0.409263
-0.329873
-0.247524
-0.162928
-0.076821
0.0100385
0.0968819
0.182936
0.267434
0.349618
0.428753
0.504128
0.575068
0.640936
0.701142
0.755146
0.802465
0.842674
0.875415
0.900393
0.917386
0.926663
-0.020483
-0.127282
-0.211504
-0.293806
-0.373429
-0.449636
-0.521715
-0.588983
-0.650802
-0.706582
-0.7558
-0.798007
-0.832837
-0.860017
-0.879362
-0.890778
-0.894254
-0.889848
-0.877687
-0.857949
-0.830861
-0.796695
-0.755761
-0.708411
-0.655037
-0.596073
-0.531995
-0.463325
-0.390624
-0.314496
-0.235582
-0.154551
-0.0721042
0.0110429
0.0941599
0.176512
0.257368
0.336007
0.411724
0.483842
0.551713
0.614728
0.672321
0.723976
0.769227
0.80767
0.838958
0.862812
0.879016
0.887375
-0.0189051
-0.120468
-0.200499
-0.278723
-0.354421
-0.426891
-0.495458
-0.559477
-0.618337
-0.671476
-0.718388
-0.758632
-0.791845
-0.817747
-0.836145
-0.846936
-0.850101
-0.845696
-0.833849
-0.814745
-0.788622
-0.755761
-0.716483
-0.671143
-0.620135
-0.563883
-0.50285
-0.437534
-0.368468
-0.296219
-0.221388
-0.144602
-0.0665151
0.0122026
0.0908675
0.168791
0.245284
0.31967
0.391286
0.45949
0.523672
0.583255
0.637704
0.686528
0.72929
0.765603
0.795141
0.817637
0.832889
0.840209
-0.0171595
-0.112584
-0.187714
-0.261165
-0.332262
-0.400347
-0.464787
-0.524974
-0.580338
-0.630347
-0.67452
-0.712434
-0.743734
-0.768141
-0.785457
-0.795569
-0.798449
-0.794145
-0.782778
-0.764533
-0.739649
-0.708411
-0.671143
-0.628204
-0.579982
-0.526896
-0.469393
-0.407948
-0.343063
-0.275271
-0.205128
-0.133218
-0.0601417
0.0134802
0.0870174
0.159833
0.231292
0.300764
0.367635
0.431309
0.491217
0.546821
0.597623
0.643165
0.683035
0.716875
0.744378
0.765296
0.779439
0.78561
-0.0152615
-0.103702
-0.173263
-0.241288
-0.307152
-0.370244
-0.429978
-0.485791
-0.537154
-0.583573
-0.624598
-0.659831
-0.688932
-0.71163
-0.727725
-0.737099
-0.739712
-0.7356
-0.724873
-0.707707
-0.684335
-0.655037
-0.620135
-0.579982
-0.534963
-0.485484
-0.431976
-0.374891
-0.314703
-0.251905
-0.187011
-0.120556
-0.0530896
0.0148254
0.0826153
0.149702
0.215506
0.279455
0.340988
0.399561
0.454653
0.505772
0.55246
0.594295
0.630901
0.661947
0.68715
0.706283
0.719169
0.724093
-0.013228
-0.0938984
-0.157273
-0.219269
-0.279314
-0.336851
-0.391344
-0.44228
-0.489175
-0.531578
-0.569076
-0.601301
-0.627933
-0.648715
-0.663453
-0.672023
-0.674376
-0.670535
-0.660596
-0.644719
-0.623121
-0.596073
-0.563883
-0.526896
-0.485484
-0.440039
-0.390972
-0.338712
-0.283701
-0.226395
-0.167265
-0.106795
-0.0454788
0.0161772
0.0776609
0.138456
0.198047
0.255922
0.31158
0.364535
0.414318
0.460489
0.502635
0.540377
0.573376
0.601332
0.623992
0.641147
0.652642
0.656233
-0.0110771
-0.0832618
-0.139888
-0.195304
-0.248996
-0.300465
-0.34923
-0.394832
-0.436835
-0.474835
-0.508459
-0.537373
-0.561287
-0.579959
-0.593206
-0.600904
-0.602997
-0.599495
-0.590475
-0.576077
-0.556501
-0.531995
-0.50285
-0.469393
-0.431976
-0.390972
-0.346771
-0.299771
-0.250384
-0.199028
-0.146129
-0.092119
-0.0374388
0.0174669
0.0721491
0.126157
0.17904
0.230354
0.279661
0.326537
0.370573
0.411384
0.448606
0.481909
0.510993
0.535594
0.555489
0.570496
0.580475
0.582663
-0.00882794
-0.0718861
-0.12126
-0.169604
-0.216467
-0.261411
-0.304014
-0.343872
-0.380604
-0.413854
-0.443294
-0.468628
-0.489596
-0.50598
-0.517611
-0.524369
-0.526193
-0.523082
-0.515095
-0.502349
-0.485018
-0.463325
-0.437534
-0.407948
-0.374891
-0.338712
-0.299771
-0.258437
-0.215086
-0.170096
-0.123847
-0.0767223
-0.0291043
0.0186223
0.0660729
0.112864
0.158614
0.202946
0.245492
0.285892
0.323802
0.358894
0.390862
0.419423
0.444323
0.465337
0.482275
0.494981
0.503336
0.504067
-0.00650038
-0.0598723
-0.101557
-0.142399
-0.182016
-0.220035
-0.256096
-0.289854
-0.320985
-0.349183
-0.374167
-0.395684
-0.413506
-0.427445
-0.437345
-0.443098
-0.44464
-0.44196
-0.4351
-0.424152
-0.409263
-0.390624
-0.368468
-0.343063
-0.314703
-0.283701
-0.250384
-0.215086
-0.178144
-0.139893
-0.100667
-0.0607965
-0.0206094
0.0195716
0.0594266
0.0986398
0.1369
0.173901
0.209343
0.242938
0.274405
0.303481
0.329916
0.353482
0.373971
0.391202
0.405019
0.415295
0.421935
0.421172
-0.00411513
-0.0473271
-0.0809518
-0.11393
-0.14595
-0.176706
-0.205903
-0.23326
-0.25851
-0.2814
-0.3017
-0.319197
-0.333704
-0.345059
-0.353129
-0.357816
-0.359059
-0.356839
-0.35118
-0.342153
-0.329873
-0.314496
-0.296219
-0.275271
-0.251905
-0.226395
-0.199028
-0.170096
-0.139893
-0.108708
-0.0768276
-0.0445293
-0.0120833
0.0202479
0.0522094
0.0835529
0.114037
0.143427
0.171496
0.198022
0.222797
0.245619
0.266301
0.284669
0.300568
0.313859
0.324423
0.332167
0.337016
0.334741
-0.00169336
-0.0343618
-0.0596282
-0.0844497
-0.108587
-0.131807
-0.153882
-0.174594
-0.193735
-0.211111
-0.226539
-0.239855
-0.250907
-0.259565
-0.265721
-0.269289
-0.270214
-0.268472
-0.264072
-0.257061
-0.247524
-0.235582
-0.221388
-0.205128
-0.187011
-0.167265
-0.146129
-0.123847
-0.100667
-0.0768276
-0.052564
-0.0280993
-0.00364645
0.0205931
0.0444284
0.0676784
0.0901712
0.111743
0.132237
0.151504
0.169402
0.185797
0.200565
0.213588
0.224763
0.233998
0.241214
0.246347
0.249352
0.245567
0.000743453
-0.0210916
-0.0377753
-0.0542198
-0.0702612
-0.0857385
-0.100494
-0.114376
-0.127238
-0.138941
-0.149357
-0.158365
-0.165856
-0.17173
-0.175905
-0.178311
-0.178901
-0.177645
-0.174543
-0.169619
-0.162928
-0.154551
-0.144602
-0.133218
-0.120556
-0.106795
-0.092119
-0.0767223
-0.0607965
-0.0445293
-0.0280993
-0.0116738
0.00459309
0.0205608
0.0361021
0.051102
0.0654568
0.0790722
0.0918619
0.103747
0.114653
0.124514
0.133265
0.140851
0.147219
0.152325
0.156132
0.158608
0.159735
0.154461
0.00317366
-0.00763408
-0.0155872
-0.0235085
-0.0313114
-0.0389088
-0.0462139
-0.0531415
-0.0596085
-0.0655344
-0.070842
-0.0754577
-0.0793124
-0.0823415
-0.0844872
-0.0856988
-0.085936
-0.0851706
-0.0833897
-0.0805982
-0.076821
-0.0721042
-0.0665151
-0.0601417
-0.0530896
-0.0454788
-0.0374388
-0.0291043
-0.0206094
-0.0120833
-0.00364645
0.00459309
0.0125412
0.020119
0.0272624
0.0339217
0.0400596
0.0456498
0.0506746
0.0551231
0.0589892
0.0622704
0.0649661
0.0670773
0.0686061
0.0695552
0.0699283
0.0697306
0.0689685
0.0622502
0.0055757
0.00589118
0.00673929
0.00741133
0.00791633
0.00826648
0.00847684
0.00856505
0.0085511
0.00845722
0.00830777
0.00812923
0.00795011
0.00780069
0.0077125
0.00771728
0.00784554
0.00812452
0.00857583
0.00921288
0.0100385
0.0110429
0.0122026
0.0134802
0.0148254
0.0161772
0.0174669
0.0186223
0.0195716
0.0202479
0.0205931
0.0205608
0.020119
0.0192512
0.0179564
0.0162491
0.0141571
0.0117199
0.008986
0.00601056
0.00285267
-0.000426938
-0.00376801
-0.00711246
-0.0104057
-0.0135976
-0.016643
-0.0195024
-0.0221413
-0.0302382
0.00792825
0.0193641
0.029006
0.0382654
0.0470738
0.0553684
0.0630925
0.070196
0.0766358
0.0823758
0.0873877
0.0916509
0.0951533
0.0978911
0.0998691
0.1011
0.101603
0.101404
0.100531
0.0990138
0.0968819
0.0941599
0.0908675
0.0870174
0.0826153
0.0776609
0.0721491
0.0660729
0.0594266
0.0522094
0.0444284
0.0361021
0.0272624
0.0179564
0.00824657
-0.0017895
-0.0120604
-0.022463
-0.0328851
-0.0432083
-0.0533113
-0.0630726
-0.0723735
-0.081101
-0.0891494
-0.0964224
-0.102834
-0.108311
-0.112792
-0.122179
0.0102104
0.0326652
0.0510152
0.0687799
0.0858135
0.101979
0.117148
0.131204
0.144041
0.155565
0.165695
0.174364
0.18152
0.187126
0.191159
0.193613
0.194496
0.193831
0.191651
0.188002
0.182936
0.176512
0.168791
0.159833
0.149702
0.138456
0.126157
0.112864
0.0986398
0.0835529
0.0676784
0.051102
0.0339217
0.0162491
-0.0017895
-0.0200538
-0.0383902
-0.0566341
-0.0746124
-0.0921467
-0.109056
-0.125163
-0.140292
-0.154278
-0.166967
-0.178219
-0.187909
-0.195929
-0.202192
-0.212761
0.012402
0.0456764
0.0725716
0.0986838
0.123792
0.147684
0.170164
0.191048
0.210168
0.227374
0.242533
0.255533
0.266282
0.274709
0.280767
0.28443
0.285694
0.284578
0.281121
0.275381
0.267434
0.257368
0.245284
0.231292
0.215506
0.198047
0.17904
0.158614
0.1369
0.114037
0.0901712
0.0654568
0.0400596
0.0141571
-0.0120604
-0.0383902
-0.0646179
-0.0905194
-0.115863
-0.140414
-0.163936
-0.186197
-0.206971
-0.226043
-0.243214
-0.258302
-0.271146
-0.281607
-0.28957
-0.301191
0.0144834
0.0582821
0.0934838
0.127712
0.160671
0.192079
0.22167
0.249196
0.27443
0.297165
0.317219
0.334436
0.348684
0.359862
0.367895
0.372739
0.37438
0.372831
0.368137
0.360368
0.349618
0.336007
0.31967
0.300764
0.279455
0.255922
0.230354
0.202946
0.173901
0.143427
0.111743
0.0790722
0.0456498
0.0117199
-0.022463
-0.0566341
-0.0905194
-0.123837
-0.1563
-0.18762
-0.217508
-0.245682
-0.271869
-0.295809
-0.317262
-0.336007
-0.351848
-0.364618
-0.374179
-0.386704
0.0164364
0.0703705
0.113566
0.155606
0.196124
0.234768
0.271208
0.305132
0.336256
0.364319
0.389091
0.410372
0.427995
0.441825
0.451766
0.457753
0.459762
0.457802
0.451921
0.4422
0.428753
0.411724
0.391286
0.367635
0.340988
0.31158
0.279661
0.245492
0.209343
0.171496
0.132237
0.0918619
0.0506746
0.008986
-0.0328851
-0.0746124
-0.115863
-0.1563
-0.195583
-0.233372
-0.269331
-0.303131
-0.334456
-0.363007
-0.388504
-0.410691
-0.429344
-0.444268
-0.455304
-0.468568
0.0182434
0.0818343
0.132641
0.18212
0.229836
0.275374
0.318339
0.35836
0.395098
0.42824
0.45751
0.482667
0.503508
0.519871
0.531633
0.538714
0.541078
0.538731
0.531723
0.520145
0.504128
0.483842
0.45949
0.431309
0.399561
0.364535
0.326537
0.285892
0.242938
0.198022
0.151504
0.103747
0.0551231
0.00601056
-0.0432083
-0.0921467
-0.140414
-0.18762
-0.233372
-0.277283
-0.318973
-0.35807
-0.39422
-0.427085
-0.456354
-0.481741
-0.502993
-0.519893
-0.532264
-0.546089
0.0198885
0.0925717
0.150538
0.207016
0.261508
0.313536
0.362644
0.408408
0.450432
0.488359
0.521868
0.550679
0.574555
0.593305
0.606785
0.6149
0.617602
0.614894
0.606828
0.593503
0.575068
0.551713
0.523672
0.491217
0.454653
0.414318
0.370573
0.323802
0.274405
0.222797
0.169402
0.114653
0.0589892
0.00285267
-0.0533113
-0.109056
-0.163936
-0.217508
-0.269331
-0.318973
-0.366011
-0.410038
-0.450663
-0.487516
-0.520256
-0.548573
-0.572189
-0.59087
-0.604421
-0.618619
0.021357
0.102487
0.167099
0.230076
0.29086
0.348914
0.403731
0.45483
0.501769
0.544144
0.581594
0.613803
0.640502
0.661474
0.676555
0.685634
0.688653
0.685612
0.676565
0.661619
0.640936
0.614728
0.583255
0.546821
0.505772
0.460489
0.411384
0.358894
0.303481
0.245619
0.185797
0.124514
0.0622704
-0.000426938
-0.0630726
-0.125163
-0.186197
-0.245682
-0.303131
-0.35807
-0.410038
-0.458592
-0.503311
-0.543796
-0.579683
-0.610637
-0.636365
-0.656615
-0.671181
-0.685556
0.022636
0.111494
0.182177
0.251093
0.317629
0.381196
0.441233
0.497215
0.548652
0.5951
0.636159
0.671479
0.700765
0.723774
0.740323
0.750286
0.753598
0.750254
0.740311
0.723882
0.701142
0.672321
0.637704
0.597623
0.55246
0.502635
0.448606
0.390862
0.329916
0.266301
0.200565
0.133265
0.0649661
-0.00376801
-0.0723735
-0.140292
-0.206971
-0.271869
-0.334456
-0.39422
-0.450663
-0.503311
-0.551714
-0.595453
-0.634139
-0.667422
-0.694994
-0.716591
-0.731998
-0.746351
0.0237141
0.11951
0.195637
0.269881
0.341579
0.410094
0.47482
0.535187
0.590665
0.640773
0.685076
0.723196
0.754808
0.77965
0.797521
0.808281
0.811859
0.808245
0.797496
0.779735
0.755146
0.723976
0.686528
0.643165
0.594295
0.540377
0.481909
0.419423
0.353482
0.284669
0.213588
0.140851
0.0670773
-0.00711246
-0.081101
-0.154278
-0.226043
-0.295809
-0.363007
-0.427085
-0.487516
-0.543796
-0.595453
-0.642045
-0.683167
-0.718457
-0.747594
-0.770307
-0.786376
-0.800511
0.0245817
0.126466
0.207362
0.286274
0.362497
0.435352
0.504192
0.568408
0.627436
0.680759
0.727913
0.768493
0.802152
0.828607
0.847641
0.859104
0.862917
0.859067
0.847612
0.82868
0.802465
0.769227
0.72929
0.683035
0.630901
0.573376
0.510993
0.444323
0.373971
0.300568
0.224763
0.147219
0.0686061
-0.0104057
-0.0891494
-0.166967
-0.243214
-0.317262
-0.388504
-0.456354
-0.520256
-0.579683
-0.634139
-0.683167
-0.72635
-0.763313
-0.793729
-0.817324
-0.833874
-0.847599
0.0252311
0.132299
0.217245
0.300126
0.380198
0.456746
0.529089
0.596584
0.658637
0.714702
0.764289
0.80697
0.842376
0.870209
0.890238
0.902303
0.906318
0.902267
0.89021
0.870278
0.842674
0.80767
0.765603
0.716875
0.661947
0.601332
0.535594
0.465337
0.391202
0.313859
0.233998
0.152325
0.0695552
-0.0135976
-0.0964224
-0.178219
-0.258302
-0.336007
-0.410691
-0.481741
-0.548573
-0.610637
-0.667422
-0.718457
-0.763313
-0.80161
-0.833016
-0.857256
-0.874108
-0.88724
0.0256565
0.136958
0.225201
0.311314
0.394524
0.474086
0.549289
0.619465
0.683992
0.742302
0.793882
0.838283
0.875123
0.904088
0.924934
0.937495
0.941676
0.937462
0.924912
0.90416
0.875415
0.838958
0.795141
0.744378
0.68715
0.623992
0.555489
0.482275
0.405019
0.324423
0.241214
0.156132
0.0699283
-0.016643
-0.102834
-0.187909
-0.271146
-0.351848
-0.429344
-0.502993
-0.572189
-0.636365
-0.694994
-0.747594
-0.793729
-0.833016
-0.865123
-0.889773
-0.906751
-0.919119
0.0258542
0.140401
0.231157
0.319739
0.405348
0.487217
0.564614
0.636848
0.703276
0.763312
0.816427
0.862157
0.900103
0.929942
0.951421
0.964365
0.968678
0.964339
0.951407
0.930021
0.900393
0.862812
0.817637
0.765296
0.706283
0.641147
0.570496
0.494981
0.415295
0.332167
0.246347
0.158608
0.0697306
-0.0195024
-0.108311
-0.195929
-0.281607
-0.364618
-0.444268
-0.519893
-0.59087
-0.656615
-0.716591
-0.770307
-0.817324
-0.857256
-0.889773
-0.914604
-0.931538
-0.942985
0.0258225
0.142598
0.235062
0.325325
0.412574
0.496025
0.574927
0.648577
0.716318
0.777548
0.831726
0.878377
0.917094
0.947542
0.969463
0.982677
0.987082
0.982657
0.969461
0.947632
0.917386
0.879016
0.832889
0.779439
0.719169
0.652642
0.580475
0.503336
0.421935
0.337016
0.249352
0.159735
0.0689685
-0.0221413
-0.112792
-0.202192
-0.28957
-0.374179
-0.455304
-0.532264
-0.604421
-0.671181
-0.731998
-0.786376
-0.833874
-0.874108
-0.906751
-0.931538
-0.948266
-0.958653
0.0257665
0.144035
0.237723
0.32921
0.417651
0.502243
0.582217
0.656853
0.725482
0.787489
0.842323
0.889499
0.928602
0.959293
0.981308
0.994466
0.998663
0.993879
0.980176
0.957696
0.926663
0.887375
0.840209
0.78561
0.724093
0.656233
0.582663
0.504067
0.421172
0.334741
0.245567
0.154461
0.0622502
-0.0302382
-0.122179
-0.212761
-0.301191
-0.386704
-0.468568
-0.546089
-0.618619
-0.685556
-0.746351
-0.800511
-0.847599
-0.88724
-0.919119
-0.942985
-0.958653
-0.967127
)
;

boundaryField
{
    left
    {
        type            fixedValue;
        value           uniform 0;
    }
    right
    {
        type            zeroGradient;
    }
    upper
    {
        type            zeroGradient;
    }
    lower
    {
        type            fixedValue;
        value           uniform 0;
    }
    sides
    {
        type            empty;
    }
}


// ************************************************************************* //
